
*************** JDFTx 1.7.0 (git hash 5f12716a) ***************

Start date and time: Tue Nov 22 17:57:10 2022
Executable /home/nisi6161/jdftx_alpine/build/jdftx with command-line: -i in
Running on hosts (process indices):  c3cpu-a7-u32-4.rc.int.colorado.edu (0-17)
Divided in process groups (process indices):  0 (0)  1 (1)  2 (2)  3 (3)  4 (4)  5 (5)  6 (6)  7 (7)  8 (8)  9 (9)  10 (10)  11 (11)  12 (12)  13 (13)  14 (14)  15 (15)  16 (16)  17 (17)
Resource initialization completed at t[s]:      0.00
Run totals: 18 processes, 64 threads, 0 GPUs


Input parsed successfully to the following command list (including defaults):

basis kpoint-dependent
converge-empty-states yes
coords-type Cartesian
core-overlap-check none
coulomb-interaction Periodic
davidson-band-ratio 1.1
density-of-states Etol 1.000000e-06 Esigma 1.000000e-03 \
		Complete \
	Total \
	OrthoOrbital C 1   s \
	OrthoOrbital C 1   p \
	OrthoOrbital C 1   px \
	OrthoOrbital C 1   py \
	OrthoOrbital C 1   pz \
	OrthoOrbital C 2   s \
	OrthoOrbital C 2   p \
	OrthoOrbital C 2   px \
	OrthoOrbital C 2   py \
	OrthoOrbital C 2   pz \
	OrthoOrbital C 3   s \
	OrthoOrbital C 3   p \
	OrthoOrbital C 3   px \
	OrthoOrbital C 3   py \
	OrthoOrbital C 3   pz \
	OrthoOrbital C 4   s \
	OrthoOrbital C 4   p \
	OrthoOrbital C 4   px \
	OrthoOrbital C 4   py \
	OrthoOrbital C 4   pz \
	OrthoOrbital C 5   s \
	OrthoOrbital C 5   p \
	OrthoOrbital C 5   px \
	OrthoOrbital C 5   py \
	OrthoOrbital C 5   pz \
	OrthoOrbital C 6   s \
	OrthoOrbital C 6   p \
	OrthoOrbital C 6   px \
	OrthoOrbital C 6   py \
	OrthoOrbital C 6   pz \
	OrthoOrbital C 7   s \
	OrthoOrbital C 7   p \
	OrthoOrbital C 7   px \
	OrthoOrbital C 7   py \
	OrthoOrbital C 7   pz \
	OrthoOrbital C 8   s \
	OrthoOrbital C 8   p \
	OrthoOrbital C 8   px \
	OrthoOrbital C 8   py \
	OrthoOrbital C 8   pz \
	OrthoOrbital C 9   s \
	OrthoOrbital C 9   p \
	OrthoOrbital C 9   px \
	OrthoOrbital C 9   py \
	OrthoOrbital C 9   pz \
	OrthoOrbital C 10   s \
	OrthoOrbital C 10   p \
	OrthoOrbital C 10   px \
	OrthoOrbital C 10   py \
	OrthoOrbital C 10   pz \
	OrthoOrbital C 11   s \
	OrthoOrbital C 11   p \
	OrthoOrbital C 11   px \
	OrthoOrbital C 11   py \
	OrthoOrbital C 11   pz \
	OrthoOrbital C 12   s \
	OrthoOrbital C 12   p \
	OrthoOrbital C 12   px \
	OrthoOrbital C 12   py \
	OrthoOrbital C 12   pz \
	OrthoOrbital C 13   s \
	OrthoOrbital C 13   p \
	OrthoOrbital C 13   px \
	OrthoOrbital C 13   py \
	OrthoOrbital C 13   pz \
	OrthoOrbital C 14   s \
	OrthoOrbital C 14   p \
	OrthoOrbital C 14   px \
	OrthoOrbital C 14   py \
	OrthoOrbital C 14   pz \
	OrthoOrbital C 15   s \
	OrthoOrbital C 15   p \
	OrthoOrbital C 15   px \
	OrthoOrbital C 15   py \
	OrthoOrbital C 15   pz \
	OrthoOrbital C 16   s \
	OrthoOrbital C 16   p \
	OrthoOrbital C 16   px \
	OrthoOrbital C 16   py \
	OrthoOrbital C 16   pz \
	OrthoOrbital C 17   s \
	OrthoOrbital C 17   p \
	OrthoOrbital C 17   px \
	OrthoOrbital C 17   py \
	OrthoOrbital C 17   pz \
	OrthoOrbital C 18   s \
	OrthoOrbital C 18   p \
	OrthoOrbital C 18   px \
	OrthoOrbital C 18   py \
	OrthoOrbital C 18   pz \
	OrthoOrbital C 19   s \
	OrthoOrbital C 19   p \
	OrthoOrbital C 19   px \
	OrthoOrbital C 19   py \
	OrthoOrbital C 19   pz \
	OrthoOrbital C 20   s \
	OrthoOrbital C 20   p \
	OrthoOrbital C 20   px \
	OrthoOrbital C 20   py \
	OrthoOrbital C 20   pz \
	OrthoOrbital C 21   s \
	OrthoOrbital C 21   p \
	OrthoOrbital C 21   px \
	OrthoOrbital C 21   py \
	OrthoOrbital C 21   pz \
	OrthoOrbital C 22   s \
	OrthoOrbital C 22   p \
	OrthoOrbital C 22   px \
	OrthoOrbital C 22   py \
	OrthoOrbital C 22   pz \
	OrthoOrbital C 23   s \
	OrthoOrbital C 23   p \
	OrthoOrbital C 23   px \
	OrthoOrbital C 23   py \
	OrthoOrbital C 23   pz \
	OrthoOrbital C 24   s \
	OrthoOrbital C 24   p \
	OrthoOrbital C 24   px \
	OrthoOrbital C 24   py \
	OrthoOrbital C 24   pz \
	OrthoOrbital C 25   s \
	OrthoOrbital C 25   p \
	OrthoOrbital C 25   px \
	OrthoOrbital C 25   py \
	OrthoOrbital C 25   pz \
	OrthoOrbital C 26   s \
	OrthoOrbital C 26   p \
	OrthoOrbital C 26   px \
	OrthoOrbital C 26   py \
	OrthoOrbital C 26   pz \
	OrthoOrbital C 27   s \
	OrthoOrbital C 27   p \
	OrthoOrbital C 27   px \
	OrthoOrbital C 27   py \
	OrthoOrbital C 27   pz \
	OrthoOrbital C 28   s \
	OrthoOrbital C 28   p \
	OrthoOrbital C 28   px \
	OrthoOrbital C 28   py \
	OrthoOrbital C 28   pz \
	OrthoOrbital C 29   s \
	OrthoOrbital C 29   p \
	OrthoOrbital C 29   px \
	OrthoOrbital C 29   py \
	OrthoOrbital C 29   pz \
	OrthoOrbital C 30   s \
	OrthoOrbital C 30   p \
	OrthoOrbital C 30   px \
	OrthoOrbital C 30   py \
	OrthoOrbital C 30   pz \
	OrthoOrbital C 31   s \
	OrthoOrbital C 31   p \
	OrthoOrbital C 31   px \
	OrthoOrbital C 31   py \
	OrthoOrbital C 31   pz \
	OrthoOrbital C 32   s \
	OrthoOrbital C 32   p \
	OrthoOrbital C 32   px \
	OrthoOrbital C 32   py \
	OrthoOrbital C 32   pz \
	OrthoOrbital C 33   s \
	OrthoOrbital C 33   p \
	OrthoOrbital C 33   px \
	OrthoOrbital C 33   py \
	OrthoOrbital C 33   pz \
	OrthoOrbital C 34   s \
	OrthoOrbital C 34   p \
	OrthoOrbital C 34   px \
	OrthoOrbital C 34   py \
	OrthoOrbital C 34   pz \
	OrthoOrbital C 35   s \
	OrthoOrbital C 35   p \
	OrthoOrbital C 35   px \
	OrthoOrbital C 35   py \
	OrthoOrbital C 35   pz \
	OrthoOrbital C 36   s \
	OrthoOrbital C 36   p \
	OrthoOrbital C 36   px \
	OrthoOrbital C 36   py \
	OrthoOrbital C 36   pz \
	OrthoOrbital C 37   s \
	OrthoOrbital C 37   p \
	OrthoOrbital C 37   px \
	OrthoOrbital C 37   py \
	OrthoOrbital C 37   pz \
	OrthoOrbital C 38   s \
	OrthoOrbital C 38   p \
	OrthoOrbital C 38   px \
	OrthoOrbital C 38   py \
	OrthoOrbital C 38   pz \
	OrthoOrbital C 39   s \
	OrthoOrbital C 39   p \
	OrthoOrbital C 39   px \
	OrthoOrbital C 39   py \
	OrthoOrbital C 39   pz \
	OrthoOrbital C 40   s \
	OrthoOrbital C 40   p \
	OrthoOrbital C 40   px \
	OrthoOrbital C 40   py \
	OrthoOrbital C 40   pz \
	OrthoOrbital C 41   s \
	OrthoOrbital C 41   p \
	OrthoOrbital C 41   px \
	OrthoOrbital C 41   py \
	OrthoOrbital C 41   pz \
	OrthoOrbital C 42   s \
	OrthoOrbital C 42   p \
	OrthoOrbital C 42   px \
	OrthoOrbital C 42   py \
	OrthoOrbital C 42   pz \
	OrthoOrbital C 43   s \
	OrthoOrbital C 43   p \
	OrthoOrbital C 43   px \
	OrthoOrbital C 43   py \
	OrthoOrbital C 43   pz \
	OrthoOrbital C 44   s \
	OrthoOrbital C 44   p \
	OrthoOrbital C 44   px \
	OrthoOrbital C 44   py \
	OrthoOrbital C 44   pz \
	OrthoOrbital C 45   s \
	OrthoOrbital C 45   p \
	OrthoOrbital C 45   px \
	OrthoOrbital C 45   py \
	OrthoOrbital C 45   pz \
	OrthoOrbital N 1   s \
	OrthoOrbital N 1   p \
	OrthoOrbital N 1   px \
	OrthoOrbital N 1   py \
	OrthoOrbital N 1   pz \
	OrthoOrbital N 2   s \
	OrthoOrbital N 2   p \
	OrthoOrbital N 2   px \
	OrthoOrbital N 2   py \
	OrthoOrbital N 2   pz \
	OrthoOrbital N 3   s \
	OrthoOrbital N 3   p \
	OrthoOrbital N 3   px \
	OrthoOrbital N 3   py \
	OrthoOrbital N 3   pz \
	OrthoOrbital N 4   s \
	OrthoOrbital N 4   p \
	OrthoOrbital N 4   px \
	OrthoOrbital N 4   py \
	OrthoOrbital N 4   pz \
	OrthoOrbital Ti 1   s \
	OrthoOrbital Ti 1   p \
	OrthoOrbital Ti 1   px \
	OrthoOrbital Ti 1   py \
	OrthoOrbital Ti 1   pz \
	OrthoOrbital Ti 1   d \
	OrthoOrbital Ti 1   dxy \
	OrthoOrbital Ti 1   dyz \
	OrthoOrbital Ti 1   dz2 \
	OrthoOrbital Ti 1   dxz \
	OrthoOrbital Ti 1   dx2-y2 \
	OrthoOrbital O 1   s \
	OrthoOrbital O 1   p \
	OrthoOrbital O 1   px \
	OrthoOrbital O 1   py \
	OrthoOrbital O 1   pz \
	OrthoOrbital O 2   s \
	OrthoOrbital O 2   p \
	OrthoOrbital O 2   px \
	OrthoOrbital O 2   py \
	OrthoOrbital O 2   pz
dump End ElecDensity KEdensity BandEigs EigStats RhoAtom DOS Kpoints
dump Ionic State IonicPositions Lattice EigStats Ecomponents
dump 
dump 
dump 
dump 
dump 
dump 
dump 
dump 
dump-name jdft.$VAR
elec-cutoff 20
elec-eigen-algo Davidson
elec-ex-corr gga-PBE
elec-initial-magnetization 0.000000 no
elec-n-bands 135
elec-smearing Fermi 0.001
electronic-minimize  \
	dirUpdateScheme      FletcherReeves \
	linminMethod         DirUpdateRecommended \
	nIterations          100 \
	history              15 \
	knormThreshold       0 \
	energyDiffThreshold  1e-07 \
	nEnergyDiff          2 \
	alphaTstart          1 \
	alphaTmin            1e-10 \
	updateTestStepSize   yes \
	alphaTreduceFactor   0.1 \
	alphaTincreaseFactor 3 \
	nAlphaAdjustMax      3 \
	wolfeEnergy          0.0001 \
	wolfeGradient        0.9 \
	fdTest               no
exchange-regularization WignerSeitzTruncated
fluid LinearPCM 298.000000 1.013250
fluid-anion F- 0.5 MeanFieldLJ \
	epsBulk 1 \
	pMol 0 \
	epsInf 1 \
	Pvap 0 \
	sigmaBulk 0 \
	Rvdw 2.24877 \
	Res 0 \
	tauNuc 343133
fluid-cation Na+ 0.5 MeanFieldLJ \
	epsBulk 1 \
	pMol 0 \
	epsInf 1 \
	Pvap 0 \
	sigmaBulk 0 \
	Rvdw 2.19208 \
	Res 0 \
	tauNuc 343133
fluid-ex-corr lda-TF lda-PZ
fluid-gummel-loop 10 1.000000e-05
fluid-minimize  \
	dirUpdateScheme      PolakRibiere \
	linminMethod         DirUpdateRecommended \
	nIterations          400 \
	history              15 \
	knormThreshold       1e-11 \
	energyDiffThreshold  0 \
	nEnergyDiff          2 \
	alphaTstart          1 \
	alphaTmin            1e-10 \
	updateTestStepSize   yes \
	alphaTreduceFactor   0.1 \
	alphaTincreaseFactor 3 \
	nAlphaAdjustMax      6 \
	wolfeEnergy          0.0001 \
	wolfeGradient        0.9 \
	fdTest               no
fluid-solvent H2O 55.338 ScalarEOS \
	epsBulk 78.4 \
	pMol 0.92466 \
	epsInf 1.77 \
	Pvap 1.06736e-10 \
	sigmaBulk 4.62e-05 \
	Rvdw 2.61727 \
	Res 1.42 \
	tauNuc 343133 \
	poleEl 15 7 1
forces-output-coords Positions
ion C   0.105113000000000   0.057993000000000   0.012196000000000 0
ion C  -2.294063000000001   3.989850000000001   0.036830000000000 0
ion C  -4.636188000000000   7.989755000000001  43.186352000000007 0
ion C  -6.944679000000000  12.009537000000002  43.167876000000007 0
ion C  -9.274525000000002  16.018981000000004  43.216025000000009 0
ion C   4.781572000000000   0.144015000000000   0.038578000000000 0
ion C   2.393441999999999   4.183655000000001   0.236791000000000 0
ion C  -0.024840000000000   7.992407000000001   0.234792000000000 0
ion C  -2.326015000000000  11.989917000000002   0.037505000000000 0
ion C  -4.617597000000001  16.017151000000002  43.246116000000008 0
ion C   9.475648000000001   0.030732000000000  43.249838000000004 0
ion C   7.180874000000001   4.120810000000001   0.063802000000000 0
ion C   0.083701000000000  15.909778000000001   0.097197000000000 0
ion C   2.441086000000000  19.890821000000003   0.015479000000000 0
ion C  11.856209000000000   3.993558000000001  43.218748000000005 0
ion C   9.563008999999999   7.991099000000001   0.041229000000000 0
ion C   4.769634000000000  15.799205000000002   0.142738000000000 0
ion C   7.096677999999997  19.901965000000001   0.004459000000000 0
ion C  16.497684000000000   3.981607000000001  43.204318000000008 0
ion C  14.187965000000002   8.001747000000000  43.175779000000006 0
ion C  11.876976000000003  12.008080000000003  43.228523000000010 0
ion C   9.472270999999999  15.955571000000004  43.234984000000004 0
ion C   0.094036000000000   2.746030000000000   0.084197000000000 0
ion C  -2.321693000000000   6.661924000000000   0.030816000000000 0
ion C  -4.638280000000000  10.658497000000002  43.188795000000006 0
ion C  -6.946729999999999  14.681130000000001  43.205009000000004 0
ion C  -9.276069000000001  18.710373000000004   0.005708000000000 0
ion C   4.779582000000000   2.863809000000000   0.132413000000000 0
ion C  -0.027267000000001  10.662764000000001   0.238935000000000 0
ion C  -2.302404000000002  14.662066000000001   0.046594000000000 0
ion C  -4.620522000000000  18.706286000000002   0.003996000000000 0
ion C   9.482347000000003   2.714718000000000  43.235236000000008 0
ion C   2.385288000000001  14.475836000000001   0.248770000000000 0
ion C   0.090738999999999  18.597775000000002   0.023208000000000 0
ion C  14.171937000000002   2.640241000000001  43.220245000000006 0
ion C  11.880902000000003   6.665686000000001  43.227937000000004 0
ion C   9.561213000000000  10.679273000000002   0.042182000000000 0
ion C   7.173064000000002  14.546341000000002   0.068630000000000 0
ion C   4.767401000000001  18.518912000000004   0.047375000000000 0
ion C  18.828890000000001   2.649165000000000  43.242179000000007 0
ion C  16.495671000000002   6.653171000000002  43.165867000000006 0
ion C  14.185988000000000  10.675409000000004  43.176252000000005 0
ion C  11.848077999999999  14.680171000000005  43.217095000000008 0
ion C   9.461399999999999  18.639464000000004  43.245744000000009 0
ion C   3.373461000000000   9.313198000000002   8.093780000000002 1
ion N   2.273497000000002  11.863315000000000   0.514381000000000 0
ion N   7.271606000000000  11.945106000000001   0.167921000000000 0
ion N   2.278078000000000   6.795471000000001   0.506843000000000 0
ion N   7.274915000000000   6.722376000000001   0.165035000000000 0
ion Ti   5.049669000000002   9.332603000000002   1.671893000000000 0
ion O   5.515347000000001   9.308922000000003   7.484367000000001 1
ion O   1.230949000000000   9.317025000000001   8.609791000000001 1
ion-species /projects/musgravc/apps/jdftx-1.6.0/build/pseudopotentials/GBRV_v1.5/$ID_pbe_v1.uspp
ion-species /projects/musgravc/apps/jdftx-1.6.0/build/pseudopotentials/GBRV_v1.5/$ID_pbe_v1.2.uspp
ion-species /projects/musgravc/apps/jdftx-1.6.0/build/pseudopotentials/GBRV_v1.5/$ID_pbe_v1.4.uspp
ion-species /projects/musgravc/apps/jdftx-1.6.0/build/pseudopotentials/GBRV_v1.5/$ID_pbe_v1.5.uspp
ion-width Ecut
ionic-minimize  \
	dirUpdateScheme      L-BFGS \
	linminMethod         DirUpdateRecommended \
	nIterations          0 \
	history              15 \
	knormThreshold       0.0001 \
	energyDiffThreshold  1e-06 \
	nEnergyDiff          2 \
	alphaTstart          1 \
	alphaTmin            1e-10 \
	updateTestStepSize   yes \
	alphaTreduceFactor   0.1 \
	alphaTincreaseFactor 3 \
	nAlphaAdjustMax      3 \
	wolfeEnergy          0.0001 \
	wolfeGradient        0.9 \
	fdTest               no
kpoint   0.000000000000   0.000000000000   0.000000000000  1.00000000000000
kpoint-folding 3 3 1 
latt-move-scale 0 0 0
latt-scale 1 1 1 
lattice  \
	  23.436261999999999  -11.733459000000000    0.000000000000000  \
	   0.017994000000000   19.941849000000001    0.000000000000000  \
	   0.000000000000000    0.000000000000000   43.256312999999999 
lattice-minimize  \
	dirUpdateScheme      L-BFGS \
	linminMethod         DirUpdateRecommended \
	nIterations          0 \
	history              15 \
	knormThreshold       0 \
	energyDiffThreshold  1e-06 \
	nEnergyDiff          2 \
	alphaTstart          1 \
	alphaTmin            1e-10 \
	updateTestStepSize   yes \
	alphaTreduceFactor   0.1 \
	alphaTincreaseFactor 3 \
	nAlphaAdjustMax      3 \
	wolfeEnergy          0.0001 \
	wolfeGradient        0.9 \
	fdTest               no
lcao-params 30 1e-06 0.001
pcm-variant CANDLE
spintype z-spin
subspace-rotation-factor 1 yes
symmetries none
symmetry-threshold 0.0001
target-mu -0.1272 no

van-der-waals D3
vibrations \
	dr 0.01\
	centralDiff no\
	useConstraints yes\
	translationSym yes\
	rotationSym no\
	omegaMin 0.0002\
	T 298\
	omegaResolution 0.0001


Applied RMS atom displacement 0 bohrs to make symmetries exact.
Applied RMS atom displacement 0 bohrs to make symmetries exact.

---------- Initializing the Grid ----------
R = 
[      23.4363     -11.7335            0  ]
[     0.017994      19.9418            0  ]
[            0            0      43.2563  ]
unit cell volume = 20225.5
G =
[   0.267976   0.157673         -0  ]
[ -0.000241801   0.314933          0  ]
[          0         -0   0.145255  ]
Minimum fftbox size, Smin = [  96  96  176  ]
Chosen fftbox size, S = [  96  96  180  ]

---------- Exchange Correlation functional ----------
Initalized PBE GGA exchange.
Initalized PBE GGA correlation.

---------- Setting up pseudopotentials ----------
Width of ionic core gaussian charges (only for fluid interactions / plotting) set to 0.397384

Reading pseudopotential file '/projects/musgravc/apps/jdftx-1.6.0/build/pseudopotentials/GBRV_v1.5/c_pbe_v1.2.uspp':
  Title: C.  Created by USPP 7.3.6 on 3-2-2014
  Reference state energy: -5.406344.  4 valence electrons in orbitals:
    |200>  occupation: 2  eigenvalue: -0.504890
    |210>  occupation: 2  eigenvalue: -0.194356
  lMax: 1  lLocal: 2  QijEcut: 5
  4 projectors sampled on a log grid with 503 points:
    l: 0  eig: -0.504890  rCut: 1.3
    l: 0  eig: 0.000000  rCut: 1.3
    l: 1  eig: -0.194357  rCut: 1.3
    l: 1  eig: 0.000000  rCut: 1.3
  Partial core density with radius 1.1
  Transforming core density to a uniform radial grid of dG=0.02 with 1464 points.
  Transforming local potential to a uniform radial grid of dG=0.02 with 1464 points.
  Transforming nonlocal projectors to a uniform radial grid of dG=0.02 with 432 points.
  Transforming density augmentations to a uniform radial grid of dG=0.02 with 1464 points.
  Transforming atomic orbitals to a uniform radial grid of dG=0.02 with 432 points.
  Core radius for overlap checks: 1.30 bohrs.

Reading pseudopotential file '/projects/musgravc/apps/jdftx-1.6.0/build/pseudopotentials/GBRV_v1.5/n_pbe_v1.2.uspp':
  Title: N.  Created by USPP 7.3.6 on 3-2-2014
  Reference state energy: -9.763716.  5 valence electrons in orbitals:
    |200>  occupation: 2  eigenvalue: -0.681964
    |210>  occupation: 3  eigenvalue: -0.260726
  lMax: 1  lLocal: 2  QijEcut: 6
  4 projectors sampled on a log grid with 491 points:
    l: 0  eig: -0.681964  rCut: 1.15
    l: 0  eig: 0.000000  rCut: 1.15
    l: 1  eig: -0.260729  rCut: 1.2
    l: 1  eig: 0.500000  rCut: 1.2
  Partial core density with radius 0.8
  Transforming core density to a uniform radial grid of dG=0.02 with 1464 points.
  Transforming local potential to a uniform radial grid of dG=0.02 with 1464 points.
  Transforming nonlocal projectors to a uniform radial grid of dG=0.02 with 432 points.
  Transforming density augmentations to a uniform radial grid of dG=0.02 with 1464 points.
  Transforming atomic orbitals to a uniform radial grid of dG=0.02 with 432 points.
  Core radius for overlap checks: 1.20 bohrs.

Reading pseudopotential file '/projects/musgravc/apps/jdftx-1.6.0/build/pseudopotentials/GBRV_v1.5/ti_pbe_v1.4.uspp':
  Title: Ti.  Created by USPP 7.3.6 on 31-3-15
  Reference state energy: -59.020943.  12 valence electrons in orbitals:
    |300>  occupation: 2  eigenvalue: -2.777623
    |310>  occupation: 6  eigenvalue: -1.894596
    |400>  occupation: 2  eigenvalue: -0.438610
    |320>  occupation: 1  eigenvalue: -0.583119
  lMax: 2  lLocal: 3  QijEcut: 6
  6 projectors sampled on a log grid with 597 points:
    l: 0  eig: -2.777624  rCut: 1.8
    l: 0  eig: -0.438611  rCut: 1.8
    l: 1  eig: -1.894596  rCut: 1.8
    l: 1  eig: 0.500000  rCut: 1.8
    l: 2  eig: -0.583118  rCut: 1.8
    l: 2  eig: 0.150000  rCut: 1.8
  Partial core density with radius 0.8
  Transforming core density to a uniform radial grid of dG=0.02 with 1464 points.
  Transforming local potential to a uniform radial grid of dG=0.02 with 1464 points.
  Transforming nonlocal projectors to a uniform radial grid of dG=0.02 with 432 points.
  Transforming density augmentations to a uniform radial grid of dG=0.02 with 1464 points.
  Transforming atomic orbitals to a uniform radial grid of dG=0.02 with 432 points.
  Core radius for overlap checks: 1.80 bohrs.

Reading pseudopotential file '/projects/musgravc/apps/jdftx-1.6.0/build/pseudopotentials/GBRV_v1.5/o_pbe_v1.2.uspp':
  Title: O.  Created by USPP 7.3.6 on 3-2-2014
  Reference state energy: -15.894388.  6 valence electrons in orbitals:
    |200>  occupation: 2  eigenvalue: -0.878823
    |210>  occupation: 4  eigenvalue: -0.332131
  lMax: 2  lLocal: 2  QijEcut: 6
  5 projectors sampled on a log grid with 511 points:
    l: 0  eig: -0.878823  rCut: 1.25
    l: 0  eig: 0.000000  rCut: 1.25
    l: 1  eig: -0.332132  rCut: 1.25
    l: 1  eig: 0.000000  rCut: 1.25
    l: 2  eig: 1.000000  rCut: 1.25
  Partial core density with radius 0.7
  Transforming core density to a uniform radial grid of dG=0.02 with 1464 points.
  Transforming local potential to a uniform radial grid of dG=0.02 with 1464 points.
  Transforming nonlocal projectors to a uniform radial grid of dG=0.02 with 432 points.
  Transforming density augmentations to a uniform radial grid of dG=0.02 with 1464 points.
  Transforming atomic orbitals to a uniform radial grid of dG=0.02 with 432 points.
  Core radius for overlap checks: 1.25 bohrs.

Initialized 4 species with 52 total atoms.

Folded 1 k-points by 3x3x1 to 9 k-points.

---------- Setting up k-points, bands, fillings ----------
No reducable k-points. 
Computing the number of bands and number of electrons
Calculating initial fillings.
nElectrons: 224.000000   nBands: 135   nStates: 18

----- Setting up reduced wavefunction bases (one per k-point) -----
average nbasis = 86412.556 , ideal nbasis = 86404.907

----- Initializing Supercell corresponding to k-point mesh -----
Lattice vector linear combinations in supercell:
[   3   0   0  ]
[   0   3   0  ]
[   0   0   1  ]
Supercell lattice vectors:
[  70.3088  -35.2004  0  ]
[  0.053982  59.8255  0  ]
[  0  0  43.2563  ]

Initializing DFT-D3 calculator:
	Parameters set for gga-PBE functional
	s6:  1.000  s_r6:  1.217
	s8:  0.722  s_r8:  1.000
	Per-atom parameters loaded for:
	 C:  sqrtQ[a0]:  3.105  Rcov[a0]:  1.417  CN: [ 0.00 0.99 2.00 3.00 3.98 ]
	 N:  sqrtQ[a0]:  2.712  Rcov[a0]:  1.342  CN: [ 0.00 0.99 2.01 2.99 ]
	Ti:  sqrtQ[a0]:  6.288  Rcov[a0]:  2.305  CN: [ 0.00 1.83 3.87 ]
	 O:  sqrtQ[a0]:  2.594  Rcov[a0]:  1.191  CN: [ 0.00 0.99 1.99 ]

Initializing DFT-D2 calculator for fluid / solvation:
	 C:  C6:   30.35 Eh-a0^6  R0: 2.744 a0
	 N:  C6:   21.33 Eh-a0^6  R0: 2.640 a0
	Ti:  C6:  187.33 Eh-a0^6  R0: 2.952 a0
	 O:  C6:   12.14 Eh-a0^6  R0: 2.536 a0

---------- Setting up ewald sum ----------
Optimum gaussian width for ewald sums = 5.626124 bohr.
Real space sum over 567 unit cells with max indices [  4  4  3  ]
Reciprocal space sum over 7803 terms with max indices [  8  8  13  ]

Computing DFT-D3 correction:
# coordination-number C 3.299 3.321 3.335 3.331 3.312 3.290 3.312 3.497 3.328 3.312 3.302 3.336 3.299 3.299 3.321 3.766 3.268 3.301 3.319 3.333 3.326 3.303 3.299 3.328 3.335 3.319 3.299 3.268 3.497 3.321 3.301 3.303 3.312 3.299 3.312 3.326 3.766 3.336 3.290 3.312 3.331 3.333 3.321 3.302 2.020
# coordination-number N 3.165 3.184 3.165 3.184
# coordination-number Ti 5.714
# coordination-number O 1.051 1.014
# diagonal-C6 C 24.29 24.07 23.92 23.96 24.17 24.37 24.16 21.69 23.99 24.16 24.27 23.91 24.29 24.29 24.07 18.91 24.57 24.27 24.09 23.94 24.02 24.25 24.29 23.99 23.92 24.09 24.29 24.57 21.68 24.07 24.27 24.25 24.16 24.29 24.17 24.02 18.90 23.91 24.37 24.16 23.96 23.94 24.07 24.27 29.45
# diagonal-C6 N 15.60 15.60 15.60 15.60
# diagonal-C6 Ti 321.59
# diagonal-C6 O 12.77 12.80
EvdW_6 =   -0.038232
EvdW_8 =   -0.030621

---------- Allocating electronic variables ----------
Initializing wave functions:  linear combination of atomic orbitals
C pseudo-atom occupations:   s ( 2 )  p ( 2 )
N pseudo-atom occupations:   s ( 2 )  p ( 3 )
Ti pseudo-atom occupations:   s ( 2 0 )  p ( 6 )  d ( 4 )
O pseudo-atom occupations:   s ( 2 )  p ( 4 )
	FillingsUpdate:  mu: -0.127200000  nElectrons: 224.000000  magneticMoment: [ Abs: 0.00460  Tot: +0.00000 ]
LCAOMinimize: Iter:   0  G: -353.9915402774370250  |grad|_K:  3.114e-03  alpha:  1.000e+00
	FillingsUpdate:  mu: -0.127200000  nElectrons: 224.000000  magneticMoment: [ Abs: 0.00451  Tot: -0.00000 ]
LCAOMinimize: Iter:   1  G: -354.4313798000585507  |grad|_K:  1.750e-03  alpha:  8.936e-02  linmin: -1.330e-01  cgtest:  1.368e+00  t[s]:    366.61
LCAOMinimize: Encountered beta<0, resetting CG.
LCAOMinimize: 	Predicted alpha/alphaT>3.000000, increasing alphaT to 2.680680e-01.
LCAOMinimize: 	Step increased G by 1.274694e+01, reducing alpha to 5.590374e-02.
	FillingsUpdate:  mu: -0.127200000  nElectrons: 224.000000  magneticMoment: [ Abs: 0.00449  Tot: -0.00000 ]
LCAOMinimize: Iter:   2  G: -354.5616387921035653  |grad|_K:  1.501e-03  alpha:  5.590e-02  linmin: -1.308e-01  cgtest:  1.021e+00  t[s]:    656.98
LCAOMinimize: Encountered beta<0, resetting CG.
LCAOMinimize: 	Predicted alpha/alphaT>3.000000, increasing alphaT to 1.677112e-01.
LCAOMinimize: 	Predicted alpha/alphaT>3.000000, increasing alphaT to 5.031336e-01.
	FillingsUpdate:  mu: -0.127200000  nElectrons: 224.000000  magneticMoment: [ Abs: 0.00448  Tot: -0.00000 ]
LCAOMinimize: Iter:   3  G: -354.6584440544585277  |grad|_K:  1.363e-03  alpha:  5.374e-02  linmin: -1.368e-01  cgtest:  9.827e-01  t[s]:    876.71
LCAOMinimize: Encountered beta<0, resetting CG.
LCAOMinimize: 	Predicted alpha/alphaT>3.000000, increasing alphaT to 1.612309e-01.
LCAOMinimize: 	Predicted alpha/alphaT>3.000000, increasing alphaT to 4.836927e-01.
	FillingsUpdate:  mu: -0.127200000  nElectrons: 224.000000  magneticMoment: [ Abs: 0.00447  Tot: -0.00000 ]
LCAOMinimize: Iter:   4  G: -354.7274504838035796  |grad|_K:  1.293e-03  alpha:  4.525e-02  linmin: -1.425e-01  cgtest:  9.664e-01  t[s]:   1095.83
LCAOMinimize: Encountered beta<0, resetting CG.
LCAOMinimize: 	Wrong curvature in test step, increasing alphaT to 1.357629e-01.
	FillingsUpdate:  mu: -0.127200000  nElectrons: 224.000000  magneticMoment: [ Abs: 0.00447  Tot: -0.00000 ]
LCAOMinimize: Iter:   5  G: -354.7904630613780910  |grad|_K:  1.251e-03  alpha: -1.816e+01  linmin: -1.494e-01  cgtest:  9.519e-01  t[s]:   1238.39
	FillingsUpdate:  mu: -0.127200000  nElectrons: 224.000000  magneticMoment: [ Abs: 0.00447  Tot: -0.00000 ]
LCAOMinimize: Iter:   6  G: -354.8281466340725956  |grad|_K:  1.236e-03  alpha:  2.824e-02  linmin: -1.532e-01  cgtest:  9.633e-01  t[s]:   1383.71
LCAOMinimize: 	Wrong curvature in test step, increasing alphaT to 8.470565e-02.
	FillingsUpdate:  mu: -0.127200000  nElectrons: 224.000000  magneticMoment: [ Abs: 0.00447  Tot: -0.00000 ]
LCAOMinimize: Iter:   7  G: -354.8655280772225069  |grad|_K:  1.229e-03  alpha: -1.010e+00  linmin: -1.578e-01  cgtest:  9.581e-01  t[s]:   1524.84
	FillingsUpdate:  mu: -0.127200000  nElectrons: 224.000000  magneticMoment: [ Abs: 0.00448  Tot: -0.00000 ]
LCAOMinimize: Iter:   8  G: -354.9028892678031184  |grad|_K:  1.227e-03  alpha:  2.810e-02  linmin: -1.626e-01  cgtest:  9.533e-01  t[s]:   1670.15
LCAOMinimize: 	Wrong curvature in test step, increasing alphaT to 8.428850e-02.
	FillingsUpdate:  mu: -0.127200000  nElectrons: 224.000000  magneticMoment: [ Abs: 0.00448  Tot: -0.00000 ]
LCAOMinimize: Iter:   9  G: -354.9407467405903844  |grad|_K:  1.231e-03  alpha: -5.643e-01  linmin: -1.675e-01  cgtest:  9.484e-01  t[s]:   1812.78
	FillingsUpdate:  mu: -0.127200000  nElectrons: 224.000000  magneticMoment: [ Abs: 0.00448  Tot: -0.00000 ]
LCAOMinimize: Iter:  10  G: -354.9805804047633728  |grad|_K:  1.239e-03  alpha:  2.892e-02  linmin: -1.727e-01  cgtest:  9.419e-01  t[s]:   1957.03
LCAOMinimize: 	Wrong curvature in test step, increasing alphaT to 8.677012e-02.
	FillingsUpdate:  mu: -0.127200000  nElectrons: 224.000000  magneticMoment: [ Abs: 0.00448  Tot: -0.00000 ]
LCAOMinimize: Iter:  11  G: -355.0216330549699819  |grad|_K:  1.251e-03  alpha: -4.056e-01  linmin: -1.781e-01  cgtest:  9.369e-01  t[s]:   2099.41
	FillingsUpdate:  mu: -0.127200000  nElectrons: 224.000000  magneticMoment: [ Abs: 0.00449  Tot: -0.00000 ]
LCAOMinimize: Iter:  12  G: -355.0667086269435799  |grad|_K:  1.268e-03  alpha:  3.062e-02  linmin: -1.839e-01  cgtest:  9.278e-01  t[s]:   2245.88
LCAOMinimize: 	Wrong curvature in test step, increasing alphaT to 9.184746e-02.
	FillingsUpdate:  mu: -0.127200000  nElectrons: 224.000000  magneticMoment: [ Abs: 0.00449  Tot: -0.00000 ]
LCAOMinimize: Iter:  13  G: -355.1138958588533114  |grad|_K:  1.287e-03  alpha: -3.229e-01  linmin: -1.897e-01  cgtest:  9.216e-01  t[s]:   2388.73
	FillingsUpdate:  mu: -0.127200000  nElectrons: 224.000000  magneticMoment: [ Abs: 0.00450  Tot: -0.00000 ]
LCAOMinimize: Iter:  14  G: -355.1677056199901585  |grad|_K:  1.310e-03  alpha:  3.321e-02  linmin: -1.959e-01  cgtest:  9.079e-01  t[s]:   2533.22
LCAOMinimize: 	Wrong curvature in test step, increasing alphaT to 9.962711e-02.
	FillingsUpdate:  mu: -0.127200000  nElectrons: 224.000000  magneticMoment: [ Abs: 0.00450  Tot: -0.00000 ]
LCAOMinimize: Iter:  15  G: -355.2251000979733249  |grad|_K:  1.334e-03  alpha: -2.514e-01  linmin: -2.015e-01  cgtest:  8.982e-01  t[s]:   2674.50
	FillingsUpdate:  mu: -0.127200000  nElectrons: 224.000000  magneticMoment: [ Abs: 0.00451  Tot: -0.00000 ]
LCAOMinimize: Iter:  16  G: -355.2939985359856792  |grad|_K:  1.359e-03  alpha:  3.683e-02  linmin: -2.065e-01  cgtest:  8.739e-01  t[s]:   2818.66
LCAOMinimize: 	Wrong curvature in test step, increasing alphaT to 1.104802e-01.
	FillingsUpdate:  mu: -0.127200000  nElectrons: 224.000000  magneticMoment: [ Abs: 0.00452  Tot: -0.00000 ]
LCAOMinimize: Iter:  17  G: -355.3672310439534385  |grad|_K:  1.376e-03  alpha: -2.095e-01  linmin: -2.098e-01  cgtest:  8.524e-01  t[s]:   2960.87
	FillingsUpdate:  mu: -0.127200000  nElectrons: 224.000000  magneticMoment: [ Abs: 0.00453  Tot: -0.00000 ]
LCAOMinimize: Iter:  18  G: -355.4560930074014777  |grad|_K:  1.363e-03  alpha:  4.162e-02  linmin: -2.115e-01  cgtest:  7.986e-01  t[s]:   3105.58
LCAOMinimize: 	Wrong curvature in test step, increasing alphaT to 1.248602e-01.
	FillingsUpdate:  mu: -0.127200000  nElectrons: 224.000000  magneticMoment: [ Abs: 0.00455  Tot: -0.00000 ]
LCAOMinimize: Iter:  19  G: -355.5465615371858803  |grad|_K:  1.212e-03  alpha: -2.401e-01  linmin: -2.143e-01  cgtest:  7.469e-01  t[s]:   3248.51
	FillingsUpdate:  mu: -0.127200000  nElectrons: 224.000000  magneticMoment: [ Abs: 0.00460  Tot: -0.00001 ]
LCAOMinimize: Iter:  20  G: -355.6094278559000372  |grad|_K:  6.981e-04  alpha:  4.306e-02  linmin: -2.279e-01  cgtest:  7.448e-01  t[s]:   3394.11
LCAOMinimize: Encountered beta<0, resetting CG.
	FillingsUpdate:  mu: -0.127200000  nElectrons: 224.000000  magneticMoment: [ Abs: 0.00469  Tot: -0.00006 ]
LCAOMinimize: Iter:  21  G: -355.6170238719398071  |grad|_K:  8.092e-04  alpha:  9.296e-02  linmin:  1.057e-01  cgtest: -5.333e-01  t[s]:   3539.15
LCAOMinimize: 	Bad step direction: g.d > 0.
LCAOMinimize: 	Undoing step.
LCAOMinimize: 	Step failed: resetting search direction.
	FillingsUpdate:  mu: -0.127200000  nElectrons: 224.000000  magneticMoment: [ Abs: 0.00469  Tot: -0.00006 ]
LCAOMinimize: Iter:  22  G: -355.6170238719398071  |grad|_K:  8.092e-04  alpha:  0.000e+00
	FillingsUpdate:  mu: -0.127200000  nElectrons: 224.000000  magneticMoment: [ Abs: 0.00466  Tot: -0.00002 ]
LCAOMinimize: Iter:  23  G: -355.6276346145422735  |grad|_K:  1.999e-04  alpha:  5.026e-02  linmin:  5.400e-02  cgtest: -5.721e-01  t[s]:   3790.58
LCAOMinimize: 	Predicted alpha/alphaT>3.000000, increasing alphaT to 1.507856e-01.
	FillingsUpdate:  mu: -0.127200000  nElectrons: 224.000000  magneticMoment: [ Abs: 0.00474  Tot: -0.00003 ]
LCAOMinimize: Iter:  24  G: -355.6303886644407157  |grad|_K:  1.752e-04  alpha:  2.524e-01  linmin:  1.742e-02  cgtest:  4.605e-01  t[s]:   3972.94
	FillingsUpdate:  mu: -0.127200000  nElectrons: 224.000000  magneticMoment: [ Abs: 0.00477  Tot: -0.00004 ]
LCAOMinimize: Iter:  25  G: -355.6309529178444677  |grad|_K:  8.184e-05  alpha:  3.934e-02  linmin: -1.116e-01  cgtest:  7.436e-01  t[s]:   4117.45
LCAOMinimize: Encountered beta<0, resetting CG.
	FillingsUpdate:  mu: -0.127200000  nElectrons: 224.000000  magneticMoment: [ Abs: 0.00481  Tot: -0.00005 ]
LCAOMinimize: Iter:  26  G: -355.6312655274554118  |grad|_K:  5.951e-05  alpha:  9.017e-02  linmin: -9.236e-02  cgtest:  6.019e-01  t[s]:   4263.70
	FillingsUpdate:  mu: -0.127200000  nElectrons: 224.000000  magneticMoment: [ Abs: 0.00486  Tot: -0.00006 ]
LCAOMinimize: Iter:  27  G: -355.6315240517723169  |grad|_K:  8.630e-05  alpha:  1.958e-01  linmin:  1.964e-02  cgtest: -2.986e-01  t[s]:   4408.72
	FillingsUpdate:  mu: -0.127200000  nElectrons: 224.000000  magneticMoment: [ Abs: 0.00494  Tot: -0.00008 ]
LCAOMinimize: Iter:  28  G: -355.6316231509461545  |grad|_K:  7.361e-05  alpha:  5.809e-02  linmin: -2.109e-03  cgtest:  9.098e-01  t[s]:   4552.83
LCAOMinimize: Encountered beta<0, resetting CG.
	FillingsUpdate:  mu: -0.127200000  nElectrons: 224.000000  magneticMoment: [ Abs: 0.00497  Tot: -0.00009 ]
LCAOMinimize: Iter:  29  G: -355.6317209333454912  |grad|_K:  3.051e-05  alpha:  4.569e-02  linmin: -1.672e-01  cgtest:  5.186e-01  t[s]:   4698.56
LCAOMinimize: Encountered beta<0, resetting CG.
LCAOMinimize: 	Wrong curvature in test step, increasing alphaT to 1.370669e-01.
	FillingsUpdate:  mu: -0.127200000  nElectrons: 224.000000  magneticMoment: [ Abs: 0.00499  Tot: -0.00009 ]
LCAOMinimize: Iter:  30  G: -355.6317572200073869  |grad|_K:  2.544e-05  alpha: -9.038e-01  linmin: -2.440e-01  cgtest:  9.947e-01  t[s]:   4841.53
LCAOMinimize: Encountered beta<0, resetting CG.
LCAOMinimize: None of the convergence criteria satisfied after 30 iterations.
----- createFluidSolver() ----- (Fluid-side solver setup)
   Initializing fluid molecule 'H2O'
     Initializing site 'O'
       Electron density: proportional to exp(-r/0.36935)*erfc((r-0.51523)/0.36823) with norm 6.826
       Charge density: gaussian nuclear width 0.478731 with net site charge 0.826
       Polarizability: cuspless exponential with width 0.32 and norm 3.73
       Hard sphere radius: 2.57003 bohrs
       Positions in reference frame:
         [ +0.000000 +0.000000 +0.000000 ]
     Initializing site 'H'
       Electron density: proportional to exp(-r/0.34641)*erfc((r-0)/0.390882) with norm 0.587
       Charge density: gaussian nuclear width 0.377945 with net site charge -0.413
       Polarizability: cuspless exponential with width 0.39 and norm 3.3
       Positions in reference frame:
         [ +0.000000 -1.441945 +1.122523 ]
         [ +0.000000 +1.441945 +1.122523 ]
     Net charge: 0   dipole magnitude: 0.927204
     Initializing spherical shell mfKernel with radius 2.61727 Bohr
     deltaS corrections:
       site 'O': -7.54299
       site 'H': -6.83917
   Initializing fluid molecule 'Na+'
     Initializing site 'Na'
       Electron density: proportional to exp(-r/0.19682)*erfc((r-0.71491)/0.41314) with norm 8.1383
       Charge density: gaussian nuclear width 0.365347 with net site charge -1
       Hard sphere radius: 1.86327 bohrs
       Positions in reference frame:
         [ +0.000000 +0.000000 +0.000000 ]
     Net charge: -1   dipole magnitude: 0
     Initializing gaussian mfKernel with width: 1.55004 Bohr
     deltaS corrections:
       site 'Na': -22.3555
   Initializing fluid molecule 'F-'
     Initializing site 'F'
       Electron density: proportional to exp(-r/0.38886)*erfc((r-0)/0.438782) with norm 8
       Charge density: gaussian nuclear width 0.374796 with net site charge 1
       Hard sphere radius: 2.39995 bohrs
       Positions in reference frame:
         [ +0.000000 +0.000000 +0.000000 ]
     Net charge: 1   dipole magnitude: 0
     Initializing gaussian mfKernel with width: 1.59012 Bohr
     deltaS corrections:
       site 'F': -9.04335

Correction to mu due to finite nuclear width = -0.0109887
   Cavity determined by nc: 0.00142 and sigma: 0.707107
   Nonlocal vdW cavity from gaussian model electron density with norm = 8 and sigma = 0.993594 bohr
   Charge asymmetry in cavity with sensitivity pCavity = 36.5 e-bohr/Eh
   Electrostatic cavity expanded by eta = 1.46 bohrs
   Weighted density cavitation model constrained by Nbulk: 0.0049383 bohr^-3, Pvap: 3.14029 kPa, Rvdw: 2.61727 bohr and sigmaBulk: 4.62e-05 Eh/bohr^2 at T: 298 K.
   Weighted density dispersion model using vdW pair potentials with single solvent site with sqrtC6eff: 0.77 SI.
WARNING: Vibrations: switching off translationSym and rotationSym since useConstraints is on.

---- Citations for features of the code used in this run ----

   Software package:
      R. Sundararaman, K. Letchworth-Weaver, K.A. Schwarz, D. Gunceler, Y. Ozhabes and T.A. Arias, 'JDFTx: software for joint density-functional theory', SoftwareX 6, 278 (2017)

   gga-PBE exchange-correlation functional:
      J.P. Perdew, K. Burke and M. Ernzerhof, Phys. Rev. Lett. 77, 3865 (1996)

   Pseudopotentials:
      KF Garrity, JW Bennett, KM Rabe and D Vanderbilt, Comput. Mater. Sci. 81, 446 (2014)

   DFT-D3 dispersion correction:
      S. Grimme, J. Antony, S. Ehrlich and H. Krieg, J. Chem. Phys. 132, 154104 (2010)

   DFT-D2 dispersion correction:
      S. Grimme, J. Comput. Chem. 27, 1787 (2006)

   Charge-asymmetric nonlocally-determined local-electric (CANDLE) solvation model:
      R. Sundararaman and W.A. Goddard III, J. Chem. Phys. 142, 064107 (2015)

   Total energy minimization with Auxiliary Hamiltonian:
      C. Freysoldt, S. Boeck, and J. Neugebauer, Phys. Rev. B 79, 241103(R) (2009)

   Grand-canonical (fixed-potential) DFT:
      R. Sundararaman, W. A. Goddard III and T. A. Arias, J. Chem. Phys. 146, 114104 (2017)

   Linear-tetrahedron sampling for density of states:
      G. Lehmann and M. Taut, Phys. status solidi (b) 54, 469 (1972)

This list may not be complete. Please suggest additional citations or
report any other bugs at https://github.com/shankar1729/jdftx/issues

Initialization completed successfully at t[s]:   4861.28

------ Vibrations::calculate() -------
WARNING: Vibrations module is experimental. Please report bugs!
Compare results with and without symmetries and report discrepancies.
Degrees of freedom: 9 total, 9 symmetry-independent.

Computing DFT-D3 correction:
# coordination-number C 3.299 3.321 3.335 3.331 3.312 3.290 3.312 3.497 3.328 3.312 3.302 3.336 3.299 3.299 3.321 3.766 3.268 3.301 3.319 3.333 3.326 3.303 3.299 3.328 3.335 3.319 3.299 3.268 3.497 3.321 3.301 3.303 3.312 3.299 3.312 3.326 3.766 3.336 3.290 3.312 3.331 3.333 3.321 3.302 2.020
# coordination-number N 3.165 3.184 3.165 3.184
# coordination-number Ti 5.714
# coordination-number O 1.051 1.014
# diagonal-C6 C 24.29 24.07 23.92 23.96 24.17 24.37 24.16 21.69 23.99 24.16 24.27 23.91 24.29 24.29 24.07 18.91 24.57 24.27 24.09 23.94 24.02 24.25 24.29 23.99 23.92 24.09 24.29 24.57 21.68 24.07 24.27 24.25 24.16 24.29 24.17 24.02 18.90 23.91 24.37 24.16 23.96 23.94 24.07 24.27 29.45
# diagonal-C6 N 15.60 15.60 15.60 15.60
# diagonal-C6 Ti 321.59
# diagonal-C6 O 12.77 12.80
EvdW_6 =   -0.038232
EvdW_8 =   -0.030621
Fluid solver invoked on fresh (random / LCAO) wavefunctions
Running a vacuum solve first:

-------- Initial electronic minimization -----------
	FillingsUpdate:  mu: -0.177809546  nElectrons: 224.000000  magneticMoment: [ Abs: 0.00499  Tot: -0.00009 ]
ElecMinimize: Iter:   0  G: -355.630359218939304  |grad|_K:  1.463e-04  alpha:  1.000e+00
	FillingsUpdate:  mu: -0.146449589  nElectrons: 224.000000  magneticMoment: [ Abs: 0.00323  Tot: -0.00017 ]
	SubspaceRotationAdjust: set factor to 0.86
ElecMinimize: Iter:   1  G: -358.613464643779992  |grad|_K:  6.455e-05  alpha:  6.731e-01  linmin:  7.866e-04  t[s]:   5095.53
	FillingsUpdate:  mu: -0.052574666  nElectrons: 224.000000  magneticMoment: [ Abs: 0.00465  Tot: -0.00204 ]
	SubspaceRotationAdjust: set factor to 0.497
ElecMinimize: Iter:   2  G: -358.626103533586502  |grad|_K:  1.048e-04  alpha:  9.061e-02  linmin:  4.839e-03  t[s]:   5238.88
ElecMinimize: 	Bad step direction: g.d > 0.
ElecMinimize: 	Undoing step.
ElecMinimize: 	Step failed: resetting search direction.
	FillingsUpdate:  mu: -0.052574666  nElectrons: 224.000000  magneticMoment: [ Abs: 0.00465  Tot: -0.00204 ]
	SubspaceRotationAdjust: set factor to 0.315
ElecMinimize: Iter:   3  G: -358.626103533586956  |grad|_K:  8.345e-05  alpha:  0.000e+00
	FillingsUpdate:  mu: -0.102061783  nElectrons: 224.000000  magneticMoment: [ Abs: 0.00347  Tot: -0.00041 ]
	SubspaceRotationAdjust: set factor to 0.162
ElecMinimize: Iter:   4  G: -358.733713989387468  |grad|_K:  3.596e-05  alpha:  7.453e-02  linmin:  3.928e-04  t[s]:   5488.52
ElecMinimize: 	Predicted alpha/alphaT>3.000000, increasing alphaT to 2.235937e-01.
	FillingsUpdate:  mu: -0.097013454  nElectrons: 224.000000  magneticMoment: [ Abs: 0.00306  Tot: -0.00040 ]
	SubspaceRotationAdjust: set factor to 0.248
ElecMinimize: Iter:   5  G: -358.886608770372618  |grad|_K:  1.925e-05  alpha:  5.778e-01  linmin: -1.056e-05  t[s]:   5668.98
	FillingsUpdate:  mu: -0.051526712  nElectrons: 224.000000  magneticMoment: [ Abs: 0.00449  Tot: -0.00173 ]
	SubspaceRotationAdjust: set factor to 0.181
ElecMinimize: Iter:   6  G: -358.933576733709970  |grad|_K:  2.077e-05  alpha:  6.070e-01  linmin:  6.321e-04  t[s]:   5813.74
	FillingsUpdate:  mu: -0.064742994  nElectrons: 224.000000  magneticMoment: [ Abs: 0.00422  Tot: -0.00122 ]
	SubspaceRotationAdjust: set factor to 0.134
	SubspaceRotationAdjust: resetting CG because factor has changed by 0.133849
ElecMinimize: 	State modified externally: resetting search direction.
ElecMinimize: Iter:   7  G: -358.950189735363779  |grad|_K:  9.325e-06  alpha:  2.313e-01
	FillingsUpdate:  mu: -0.051629563  nElectrons: 224.000000  magneticMoment: [ Abs: 0.00476  Tot: -0.00152 ]
	SubspaceRotationAdjust: set factor to 0.266
ElecMinimize: Iter:   8  G: -358.957372678635636  |grad|_K:  6.112e-06  alpha:  3.939e-01  linmin:  4.996e-05  t[s]:   6182.14
	FillingsUpdate:  mu: -0.071000822  nElectrons: 224.000000  magneticMoment: [ Abs: 0.00501  Tot: -0.00142 ]
	SubspaceRotationAdjust: set factor to 0.193
ElecMinimize: Iter:   9  G: -358.961406953687572  |grad|_K:  5.342e-06  alpha:  5.128e-01  linmin: -1.237e-04  t[s]:   6326.27
	FillingsUpdate:  mu: -0.053072593  nElectrons: 224.000000  magneticMoment: [ Abs: 0.00682  Tot: -0.00252 ]
	SubspaceRotationAdjust: set factor to 0.121
ElecMinimize: Iter:  10  G: -358.963792365035033  |grad|_K:  3.894e-06  alpha:  3.853e-01  linmin:  2.540e-05  t[s]:   6469.45
	FillingsUpdate:  mu: -0.062948006  nElectrons: 224.000000  magneticMoment: [ Abs: 0.00864  Tot: -0.00320 ]
	SubspaceRotationAdjust: set factor to 0.113
ElecMinimize: Iter:  11  G: -358.965655564671010  |grad|_K:  3.667e-06  alpha:  5.864e-01  linmin: -1.288e-05  t[s]:   6612.50
	FillingsUpdate:  mu: -0.058576094  nElectrons: 224.000000  magneticMoment: [ Abs: 0.01120  Tot: -0.00461 ]
	SubspaceRotationAdjust: set factor to 0.121
ElecMinimize: Iter:  12  G: -358.967330129641539  |grad|_K:  2.089e-06  alpha:  5.850e-01  linmin:  1.579e-05  t[s]:   6757.00
	FillingsUpdate:  mu: -0.060773164  nElectrons: 224.000000  magneticMoment: [ Abs: 0.01351  Tot: -0.00583 ]
	SubspaceRotationAdjust: set factor to 0.13
ElecMinimize: Iter:  13  G: -358.968102035169807  |grad|_K:  1.645e-06  alpha:  8.499e-01  linmin:  4.711e-06  t[s]:   6900.29
	FillingsUpdate:  mu: -0.058650189  nElectrons: 224.000000  magneticMoment: [ Abs: 0.01626  Tot: -0.00759 ]
	SubspaceRotationAdjust: set factor to 0.14
ElecMinimize: Iter:  14  G: -358.968502758922227  |grad|_K:  1.348e-06  alpha:  7.051e-01  linmin:  5.608e-06  t[s]:   7043.77
	FillingsUpdate:  mu: -0.059198362  nElectrons: 224.000000  magneticMoment: [ Abs: 0.02077  Tot: -0.01060 ]
	SubspaceRotationAdjust: set factor to 0.156
ElecMinimize: Iter:  15  G: -358.968850699013217  |grad|_K:  1.116e-06  alpha:  9.250e-01  linmin:  5.093e-05  t[s]:   7187.06
	FillingsUpdate:  mu: -0.060762162  nElectrons: 224.000000  magneticMoment: [ Abs: 0.02445  Tot: -0.01304 ]
	SubspaceRotationAdjust: set factor to 0.168
ElecMinimize: Iter:  16  G: -358.968996974835136  |grad|_K:  6.790e-07  alpha:  5.695e-01  linmin: -1.428e-05  t[s]:   7330.17
	FillingsUpdate:  mu: -0.060882958  nElectrons: 224.000000  magneticMoment: [ Abs: 0.02870  Tot: -0.01568 ]
	SubspaceRotationAdjust: set factor to 0.202
ElecMinimize: Iter:  17  G: -358.969053584552569  |grad|_K:  5.146e-07  alpha:  5.810e-01  linmin:  1.918e-05  t[s]:   7473.60
	FillingsUpdate:  mu: -0.060639973  nElectrons: 224.000000  magneticMoment: [ Abs: 0.03683  Tot: -0.02047 ]
	SubspaceRotationAdjust: set factor to 0.25
ElecMinimize: Iter:  18  G: -358.969096226801867  |grad|_K:  4.096e-07  alpha:  7.714e-01  linmin:  3.779e-05  t[s]:   7617.38
	FillingsUpdate:  mu: -0.060806902  nElectrons: 224.000000  magneticMoment: [ Abs: 0.05067  Tot: -0.02807 ]
	SubspaceRotationAdjust: set factor to 0.302
ElecMinimize: Iter:  19  G: -358.969126121504758  |grad|_K:  3.815e-07  alpha:  8.532e-01  linmin: -2.099e-07  t[s]:   7760.54
	FillingsUpdate:  mu: -0.060472466  nElectrons: 224.000000  magneticMoment: [ Abs: 0.07586  Tot: -0.04161 ]
	SubspaceRotationAdjust: set factor to 0.367
ElecMinimize: Iter:  20  G: -358.969151415693204  |grad|_K:  4.154e-07  alpha:  8.266e-01  linmin:  3.110e-06  t[s]:   7903.91
	FillingsUpdate:  mu: -0.060777502  nElectrons: 224.000000  magneticMoment: [ Abs: 0.13140  Tot: -0.07043 ]
	SubspaceRotationAdjust: set factor to 0.335
ElecMinimize: Iter:  21  G: -358.969182631279239  |grad|_K:  6.303e-07  alpha:  8.621e-01  linmin: -9.723e-06  t[s]:   8047.35
	FillingsUpdate:  mu: -0.057499251  nElectrons: 224.000000  magneticMoment: [ Abs: 0.31337  Tot: -0.16897 ]
	SubspaceRotationAdjust: set factor to 0.228
ElecMinimize: Iter:  22  G: -358.969254224601400  |grad|_K:  2.093e-06  alpha:  8.946e-01  linmin:  2.789e-04  t[s]:   8190.70
ElecMinimize: 	Step increased G by 1.321254e-02, reducing alpha to 3.129062e-05.
ElecMinimize: 	Step increased G by 1.321418e-02, reducing alpha to 3.129062e-06.
ElecMinimize: 	Step increased G by 1.321435e-02, reducing alpha to 3.129062e-07.
ElecMinimize: 	Step failed to reduce G after 3 attempts. Quitting step.
ElecMinimize: 	Undoing step.
ElecMinimize: 	Step failed: resetting search direction.
	FillingsUpdate:  mu: -0.063383356  nElectrons: 224.000000  magneticMoment: [ Abs: 0.31386  Tot: -0.16897 ]
	SubspaceRotationAdjust: set factor to 0.127
ElecMinimize: Iter:  23  G: -358.956039875436204  |grad|_K:  4.164e-06  alpha:  3.129e-07
	FillingsUpdate:  mu: -0.053714086  nElectrons: 224.000000  magneticMoment: [ Abs: 0.40825  Tot: -0.19490 ]
	SubspaceRotationAdjust: set factor to 0.144
ElecMinimize: Iter:  24  G: -358.963017725057341  |grad|_K:  6.881e-06  alpha:  1.894e+00  linmin: -7.126e-05  t[s]:   8760.03
	FillingsUpdate:  mu: -0.062628000  nElectrons: 224.000000  magneticMoment: [ Abs: 0.51104  Tot: -0.25809 ]
	SubspaceRotationAdjust: set factor to 0.133
ElecMinimize: Iter:  25  G: -358.968421364014546  |grad|_K:  4.082e-06  alpha:  5.999e-01  linmin:  5.147e-04  t[s]:   8903.31
	FillingsUpdate:  mu: -0.057315210  nElectrons: 224.000000  magneticMoment: [ Abs: 0.57974  Tot: -0.32782 ]
	SubspaceRotationAdjust: set factor to 0.121
ElecMinimize: Iter:  26  G: -358.970143685342407  |grad|_K:  1.883e-06  alpha:  5.159e-01  linmin:  1.064e-04  t[s]:   9046.64
	FillingsUpdate:  mu: -0.061084527  nElectrons: 224.000000  magneticMoment: [ Abs: 0.60785  Tot: -0.34156 ]
	SubspaceRotationAdjust: set factor to 0.113
ElecMinimize: Iter:  27  G: -358.970563471196215  |grad|_K:  1.335e-06  alpha:  5.650e-01  linmin: -2.242e-04  t[s]:   9190.03
	FillingsUpdate:  mu: -0.059080483  nElectrons: 224.000000  magneticMoment: [ Abs: 0.67312  Tot: -0.38381 ]
	SubspaceRotationAdjust: set factor to 0.134
ElecMinimize: Iter:  28  G: -358.970867757319184  |grad|_K:  1.243e-06  alpha:  8.040e-01  linmin:  1.927e-05  t[s]:   9333.65
	FillingsUpdate:  mu: -0.059830995  nElectrons: 224.000000  magneticMoment: [ Abs: 0.76900  Tot: -0.43347 ]
	SubspaceRotationAdjust: set factor to 0.153
ElecMinimize: Iter:  29  G: -358.971195900931264  |grad|_K:  1.384e-06  alpha:  1.014e+00  linmin:  4.855e-05  t[s]:   9477.49
	FillingsUpdate:  mu: -0.058759192  nElectrons: 224.000000  magneticMoment: [ Abs: 0.90590  Tot: -0.49487 ]
	SubspaceRotationAdjust: set factor to 0.173
ElecMinimize: Iter:  30  G: -358.971584068708978  |grad|_K:  1.402e-06  alpha:  9.739e-01  linmin: -1.015e-04  t[s]:   9621.28
	FillingsUpdate:  mu: -0.059822346  nElectrons: 224.000000  magneticMoment: [ Abs: 1.03677  Tot: -0.55722 ]
	SubspaceRotationAdjust: set factor to 0.193
ElecMinimize: Iter:  31  G: -358.971946959005436  |grad|_K:  1.336e-06  alpha:  8.679e-01  linmin: -8.576e-05  t[s]:   9765.02
	FillingsUpdate:  mu: -0.059109593  nElectrons: 224.000000  magneticMoment: [ Abs: 1.15823  Tot: -0.64391 ]
	SubspaceRotationAdjust: set factor to 0.215
ElecMinimize: Iter:  32  G: -358.972236443089969  |grad|_K:  1.180e-06  alpha:  7.531e-01  linmin:  1.077e-04  t[s]:   9909.18
	FillingsUpdate:  mu: -0.059466788  nElectrons: 224.000000  magneticMoment: [ Abs: 1.29351  Tot: -0.76191 ]
	SubspaceRotationAdjust: set factor to 0.266
ElecMinimize: Iter:  33  G: -358.972535041903996  |grad|_K:  1.119e-06  alpha:  1.034e+00  linmin: -4.748e-05  t[s]:  10052.69
	FillingsUpdate:  mu: -0.060016059  nElectrons: 224.000000  magneticMoment: [ Abs: 1.38455  Tot: -0.85268 ]
	SubspaceRotationAdjust: set factor to 0.32
ElecMinimize: Iter:  34  G: -358.972750582238291  |grad|_K:  1.026e-06  alpha:  8.169e-01  linmin: -3.390e-05  t[s]:  10196.39
	FillingsUpdate:  mu: -0.060257191  nElectrons: 224.000000  magneticMoment: [ Abs: 1.46198  Tot: -0.95161 ]
	SubspaceRotationAdjust: set factor to 0.414
ElecMinimize: Iter:  35  G: -358.972937121252812  |grad|_K:  8.492e-07  alpha:  8.374e-01  linmin: -1.272e-05  t[s]:  10339.61
	FillingsUpdate:  mu: -0.060204092  nElectrons: 224.000000  magneticMoment: [ Abs: 1.51190  Tot: -1.03979 ]
	SubspaceRotationAdjust: set factor to 0.521
ElecMinimize: Iter:  36  G: -358.973065931730275  |grad|_K:  8.731e-07  alpha:  8.478e-01  linmin:  6.727e-06  t[s]:  10483.12
	FillingsUpdate:  mu: -0.061967498  nElectrons: 224.000000  magneticMoment: [ Abs: 1.53340  Tot: -1.09425 ]
	SubspaceRotationAdjust: set factor to 0.335
ElecMinimize: Iter:  37  G: -358.973163698804001  |grad|_K:  1.149e-06  alpha:  6.066e-01  linmin:  2.626e-06  t[s]:  10626.35
	FillingsUpdate:  mu: -0.060562113  nElectrons: 224.000000  magneticMoment: [ Abs: 1.56138  Tot: -1.15401 ]
	SubspaceRotationAdjust: set factor to 0.228
ElecMinimize: Iter:  38  G: -358.973210372269136  |grad|_K:  7.296e-07  alpha:  1.880e-01  linmin:  2.331e-04  t[s]:  10769.57
ElecMinimize: 	Predicted alpha/alphaT>3.000000, increasing alphaT to 5.640047e-01.
	FillingsUpdate:  mu: -0.061365695  nElectrons: 224.000000  magneticMoment: [ Abs: 1.58066  Tot: -1.20706 ]
	SubspaceRotationAdjust: set factor to 0.269
ElecMinimize: Iter:  39  G: -358.973271731601130  |grad|_K:  4.182e-07  alpha:  6.036e-01  linmin:  8.912e-05  t[s]:  10949.75
	FillingsUpdate:  mu: -0.061253626  nElectrons: 224.000000  magneticMoment: [ Abs: 1.58758  Tot: -1.23220 ]
	SubspaceRotationAdjust: set factor to 0.348
ElecMinimize: Iter:  40  G: -358.973299386128474  |grad|_K:  3.150e-07  alpha:  7.687e-01  linmin: -9.890e-06  t[s]:  11093.09
	FillingsUpdate:  mu: -0.061392021  nElectrons: 224.000000  magneticMoment: [ Abs: 1.58473  Tot: -1.24217 ]
	SubspaceRotationAdjust: set factor to 0.455
ElecMinimize: Iter:  41  G: -358.973315800740920  |grad|_K:  2.786e-07  alpha:  7.857e-01  linmin:  3.444e-06  t[s]:  11235.89
	FillingsUpdate:  mu: -0.061170530  nElectrons: 224.000000  magneticMoment: [ Abs: 1.58153  Tot: -1.25012 ]
	SubspaceRotationAdjust: set factor to 0.412
ElecMinimize: Iter:  42  G: -358.973325865838774  |grad|_K:  2.483e-07  alpha:  6.171e-01  linmin:  3.665e-06  t[s]:  11379.31
	FillingsUpdate:  mu: -0.061609418  nElectrons: 224.000000  magneticMoment: [ Abs: 1.57446  Tot: -1.24679 ]
	SubspaceRotationAdjust: set factor to 0.33
ElecMinimize: Iter:  43  G: -358.973329745136425  |grad|_K:  2.663e-07  alpha:  2.995e-01  linmin: -1.050e-06  t[s]:  11522.27
	FillingsUpdate:  mu: -0.061321910  nElectrons: 224.000000  magneticMoment: [ Abs: 1.56917  Tot: -1.24948 ]
	SubspaceRotationAdjust: set factor to 0.37
ElecMinimize: Iter:  44  G: -358.973335146982436  |grad|_K:  1.495e-07  alpha:  3.629e-01  linmin:  1.486e-05  t[s]:  11665.74
	FillingsUpdate:  mu: -0.061286229  nElectrons: 224.000000  magneticMoment: [ Abs: 1.56138  Tot: -1.24650 ]
	SubspaceRotationAdjust: set factor to 0.48
ElecMinimize: Iter:  45  G: -358.973338800453689  |grad|_K:  1.364e-07  alpha:  7.825e-01  linmin:  4.220e-06  t[s]:  11809.30
	FillingsUpdate:  mu: -0.061514765  nElectrons: 224.000000  magneticMoment: [ Abs: 1.55501  Tot: -1.24120 ]
	SubspaceRotationAdjust: set factor to 0.309
ElecMinimize: Iter:  46  G: -358.973340493443175  |grad|_K:  1.743e-07  alpha:  4.325e-01  linmin: -2.853e-06  t[s]:  11952.97
	FillingsUpdate:  mu: -0.061274009  nElectrons: 224.000000  magneticMoment: [ Abs: 1.55226  Tot: -1.23996 ]
	SubspaceRotationAdjust: set factor to 0.302
ElecMinimize: Iter:  47  G: -358.973341958602248  |grad|_K:  1.021e-07  alpha:  2.290e-01  linmin: -1.137e-06  t[s]:  12096.24
ElecMinimize: 	Predicted alpha/alphaT>3.000000, increasing alphaT to 6.869344e-01.
	FillingsUpdate:  mu: -0.061259883  nElectrons: 224.000000  magneticMoment: [ Abs: 1.54679  Tot: -1.23428 ]
	SubspaceRotationAdjust: set factor to 0.444
ElecMinimize: Iter:  48  G: -358.973343551026517  |grad|_K:  7.703e-08  alpha:  7.261e-01  linmin:  2.467e-07  t[s]:  12276.19
	FillingsUpdate:  mu: -0.061382396  nElectrons: 224.000000  magneticMoment: [ Abs: 1.54376  Tot: -1.23001 ]
	SubspaceRotationAdjust: set factor to 0.301
ElecMinimize: Iter:  49  G: -358.973344137166862  |grad|_K:  9.375e-08  alpha:  4.692e-01  linmin: -5.011e-07  t[s]:  12419.39
	FillingsUpdate:  mu: -0.061245244  nElectrons: 224.000000  magneticMoment: [ Abs: 1.54338  Tot: -1.22886 ]
	SubspaceRotationAdjust: set factor to 0.277
ElecMinimize: Iter:  50  G: -358.973344539703419  |grad|_K:  4.900e-08  alpha:  2.182e-01  linmin:  1.300e-06  t[s]:  12562.99
ElecMinimize: 	Predicted alpha/alphaT>3.000000, increasing alphaT to 6.547199e-01.
	FillingsUpdate:  mu: -0.061234649  nElectrons: 224.000000  magneticMoment: [ Abs: 1.54266  Tot: -1.22626 ]
	SubspaceRotationAdjust: set factor to 0.389
ElecMinimize: Iter:  51  G: -358.973344885368419  |grad|_K:  3.636e-08  alpha:  6.854e-01  linmin:  4.433e-07  t[s]:  12743.18
	FillingsUpdate:  mu: -0.061263066  nElectrons: 224.000000  magneticMoment: [ Abs: 1.54245  Tot: -1.22420 ]
	SubspaceRotationAdjust: set factor to 0.389
ElecMinimize: Iter:  52  G: -358.973345077173462  |grad|_K:  3.984e-08  alpha:  6.908e-01  linmin:  4.833e-07  t[s]:  12886.26
	FillingsUpdate:  mu: -0.061194679  nElectrons: 224.000000  magneticMoment: [ Abs: 1.54322  Tot: -1.22390 ]
	SubspaceRotationAdjust: set factor to 0.31
ElecMinimize: Iter:  53  G: -358.973345184986499  |grad|_K:  4.071e-08  alpha:  3.233e-01  linmin:  2.651e-07  t[s]:  13029.83
	FillingsUpdate:  mu: -0.061242285  nElectrons: 224.000000  magneticMoment: [ Abs: 1.54352  Tot: -1.22236 ]
	SubspaceRotationAdjust: set factor to 0.365
ElecMinimize: Iter:  54  G: -358.973345312531876  |grad|_K:  2.713e-08  alpha:  3.666e-01  linmin:  2.367e-07  t[s]:  13173.80
	FillingsUpdate:  mu: -0.061248650  nElectrons: 224.000000  magneticMoment: [ Abs: 1.54451  Tot: -1.22161 ]
	SubspaceRotationAdjust: set factor to 0.496
ElecMinimize: Iter:  55  G: -358.973345432203359  |grad|_K:  2.128e-08  alpha:  7.755e-01  linmin:  8.834e-07  t[s]:  13318.37
	FillingsUpdate:  mu: -0.061215499  nElectrons: 224.000000  magneticMoment: [ Abs: 1.54532  Tot: -1.22190 ]
	SubspaceRotationAdjust: set factor to 0.339
ElecMinimize: Iter:  56  G: -358.973345482254899  |grad|_K:  2.979e-08  alpha:  5.252e-01  linmin:  3.049e-07  t[s]:  13462.93
	FillingsUpdate:  mu: -0.061256552  nElectrons: 224.000000  magneticMoment: [ Abs: 1.54546  Tot: -1.22155 ]
	SubspaceRotationAdjust: set factor to 0.262
ElecMinimize: Iter:  57  G: -358.973345517798748  |grad|_K:  1.580e-08  alpha:  1.916e-01  linmin:  4.259e-07  t[s]:  13606.78
ElecMinimize: Converged (|Delta G|<1.000000e-07 for 2 iters).
Setting wave functions to eigenvectors of Hamiltonian
Converging empty states (this may take a while): |deigs|: 2.778e-03
Vacuum energy after initial minimize, F = -358.973345517798748

Shifting auxilliary hamiltonian by -0.065943 to set nElectrons=224.000000

-------- Electronic minimization -----------
	Linear fluid (dielectric constant: 78.4, screening length: 8.12261 Bohr) occupying 0.712150 of unit cell:	Completed after 24 iterations at t[s]:  14213.66
	FillingsUpdate:  mu: -0.127200000  nElectrons: 224.000000  magneticMoment: [ Abs: 1.54690  Tot: -1.22439 ]
ElecMinimize: Iter:   0  G: -358.968667624292834  |grad|_K:  4.317e-06  alpha:  1.000e+00
	Linear fluid (dielectric constant: 78.4, screening length: 8.12261 Bohr) occupying 0.712926 of unit cell:	Completed after 20 iterations at t[s]:  14355.93
	Linear fluid (dielectric constant: 78.4, screening length: 8.12261 Bohr) occupying 0.712346 of unit cell:	Completed after 19 iterations at t[s]:  14416.78
	FillingsUpdate:  mu: -0.127200000  nElectrons: 223.893660  magneticMoment: [ Abs: 1.46414  Tot: -1.13617 ]
	SubspaceRotationAdjust: set factor to 0.167
ElecMinimize: Iter:   1  G: -358.969170349913099  |grad|_K:  4.356e-06  alpha:  2.128e-01  linmin:  9.779e-03  t[s]:  14478.46
	Linear fluid (dielectric constant: 78.4, screening length: 8.12261 Bohr) occupying 0.712601 of unit cell:	Completed after 10 iterations at t[s]:  14539.98
	Linear fluid (dielectric constant: 78.4, screening length: 8.12261 Bohr) occupying 0.712988 of unit cell:	Completed after 13 iterations at t[s]:  14595.77
	FillingsUpdate:  mu: -0.127200000  nElectrons: 223.879546  magneticMoment: [ Abs: 1.41649  Tot: -1.02981 ]
	SubspaceRotationAdjust: set factor to 0.32
ElecMinimize: Iter:   2  G: -358.970453756882875  |grad|_K:  2.409e-06  alpha:  5.680e-01  linmin:  3.438e-04  t[s]:  14657.87
	Linear fluid (dielectric constant: 78.4, screening length: 8.12261 Bohr) occupying 0.713234 of unit cell:	Completed after 16 iterations at t[s]:  14724.03
	Linear fluid (dielectric constant: 78.4, screening length: 8.12261 Bohr) occupying 0.713172 of unit cell:	Completed after 13 iterations at t[s]:  14779.87
	FillingsUpdate:  mu: -0.127200000  nElectrons: 223.930783  magneticMoment: [ Abs: 1.43459  Tot: -1.01417 ]
	SubspaceRotationAdjust: set factor to 0.199
ElecMinimize: Iter:   3  G: -358.970968305840358  |grad|_K:  2.502e-06  alpha:  4.272e-01  linmin:  1.249e-04  t[s]:  14841.94
	Linear fluid (dielectric constant: 78.4, screening length: 8.12261 Bohr) occupying 0.713404 of unit cell:	Completed after 14 iterations at t[s]:  14907.39
	Linear fluid (dielectric constant: 78.4, screening length: 8.12261 Bohr) occupying 0.713279 of unit cell:	Completed after 13 iterations at t[s]:  14963.34
	FillingsUpdate:  mu: -0.127200000  nElectrons: 223.894040  magneticMoment: [ Abs: 1.40497  Tot: -0.96737 ]
	SubspaceRotationAdjust: set factor to 0.162
ElecMinimize: Iter:   4  G: -358.971185113627882  |grad|_K:  1.481e-06  alpha:  1.880e-01  linmin:  5.530e-04  t[s]:  15025.09
	Linear fluid (dielectric constant: 78.4, screening length: 8.12261 Bohr) occupying 0.713313 of unit cell:	Completed after 3 iterations at t[s]:  15081.13
ElecMinimize: 	Predicted alpha/alphaT>3.000000, increasing alphaT to 5.638928e-01.
	Linear fluid (dielectric constant: 78.4, screening length: 8.12261 Bohr) occupying 0.713376 of unit cell:	Completed after 8 iterations at t[s]:  15132.69
	Linear fluid (dielectric constant: 78.4, screening length: 8.12261 Bohr) occupying 0.713398 of unit cell:	Completed after 3 iterations at t[s]:  15180.32
	FillingsUpdate:  mu: -0.127200000  nElectrons: 223.873098  magneticMoment: [ Abs: 1.39369  Tot: -0.91918 ]
	SubspaceRotationAdjust: set factor to 0.154
ElecMinimize: Iter:   5  G: -358.971484120372736  |grad|_K:  1.066e-06  alpha:  7.056e-01  linmin:  3.709e-04  t[s]:  15242.26
	Linear fluid (dielectric constant: 78.4, screening length: 8.12261 Bohr) occupying 0.713450 of unit cell:	Completed after 13 iterations at t[s]:  15305.94
	Linear fluid (dielectric constant: 78.4, screening length: 8.12261 Bohr) occupying 0.713448 of unit cell:	Completed after 2 iterations at t[s]:  15352.84
	FillingsUpdate:  mu: -0.127200000  nElectrons: 223.842420  magneticMoment: [ Abs: 1.36891  Tot: -0.86491 ]
	SubspaceRotationAdjust: set factor to 0.133
ElecMinimize: Iter:   6  G: -358.971639058933363  |grad|_K:  9.509e-07  alpha:  6.827e-01  linmin: -9.920e-04  t[s]:  15414.88
	Linear fluid (dielectric constant: 78.4, screening length: 8.12261 Bohr) occupying 0.713481 of unit cell:	Completed after 13 iterations at t[s]:  15478.64
	Linear fluid (dielectric constant: 78.4, screening length: 8.12261 Bohr) occupying 0.713472 of unit cell:	Completed after 9 iterations at t[s]:  15530.96
	FillingsUpdate:  mu: -0.127200000  nElectrons: 223.862125  magneticMoment: [ Abs: 1.37444  Tot: -0.83217 ]
	SubspaceRotationAdjust: set factor to 0.0971
ElecMinimize: Iter:   7  G: -358.971745051445055  |grad|_K:  7.234e-07  alpha:  4.934e-01  linmin:  5.864e-05  t[s]:  15592.93
	Linear fluid (dielectric constant: 78.4, screening length: 8.12261 Bohr) occupying 0.713477 of unit cell:	Completed after 7 iterations at t[s]:  15651.64
	Linear fluid (dielectric constant: 78.4, screening length: 8.12261 Bohr) occupying 0.713478 of unit cell:	Completed after 4 iterations at t[s]:  15700.05
	FillingsUpdate:  mu: -0.127200000  nElectrons: 223.862309  magneticMoment: [ Abs: 1.36576  Tot: -0.78398 ]
	SubspaceRotationAdjust: set factor to 0.126
ElecMinimize: Iter:   8  G: -358.971832501152619  |grad|_K:  5.992e-07  alpha:  7.700e-01  linmin: -5.985e-04  t[s]:  15761.98
	Linear fluid (dielectric constant: 78.4, screening length: 8.12261 Bohr) occupying 0.713464 of unit cell:	Completed after 4 iterations at t[s]:  15818.20
	Linear fluid (dielectric constant: 78.4, screening length: 8.12261 Bohr) occupying 0.713463 of unit cell:	Completed after 2 iterations at t[s]:  15864.86
	FillingsUpdate:  mu: -0.127200000  nElectrons: 223.863179  magneticMoment: [ Abs: 1.35945  Tot: -0.74725 ]
	SubspaceRotationAdjust: set factor to 0.144
ElecMinimize: Iter:   9  G: -358.971899762949704  |grad|_K:  5.359e-07  alpha:  8.183e-01  linmin:  7.775e-05  t[s]:  15926.55
	Linear fluid (dielectric constant: 78.4, screening length: 8.12261 Bohr) occupying 0.713440 of unit cell:	Completed after 5 iterations at t[s]:  15983.74
	Linear fluid (dielectric constant: 78.4, screening length: 8.12261 Bohr) occupying 0.713440 of unit cell:	Completed after 0 iterations at t[s]:  16027.89
	FillingsUpdate:  mu: -0.127200000  nElectrons: 223.862494  magneticMoment: [ Abs: 1.34965  Tot: -0.71323 ]
	SubspaceRotationAdjust: set factor to 0.165
ElecMinimize: Iter:  10  G: -358.971950400856315  |grad|_K:  4.208e-07  alpha:  8.447e-01  linmin: -6.425e-04  t[s]:  16091.95
	Linear fluid (dielectric constant: 78.4, screening length: 8.12261 Bohr) occupying 0.713429 of unit cell:	Completed after 7 iterations at t[s]:  16150.86
	Linear fluid (dielectric constant: 78.4, screening length: 8.12261 Bohr) occupying 0.713430 of unit cell:	Completed after 2 iterations at t[s]:  16197.40
	FillingsUpdate:  mu: -0.127200000  nElectrons: 223.867303  magneticMoment: [ Abs: 1.34425  Tot: -0.69066 ]
	SubspaceRotationAdjust: set factor to 0.18
ElecMinimize: Iter:  11  G: -358.971981088282746  |grad|_K:  3.957e-07  alpha:  7.757e-01  linmin:  2.675e-04  t[s]:  16258.99
	Linear fluid (dielectric constant: 78.4, screening length: 8.12261 Bohr) occupying 0.713430 of unit cell:	Completed after 3 iterations at t[s]:  16314.61
	Linear fluid (dielectric constant: 78.4, screening length: 8.12261 Bohr) occupying 0.713430 of unit cell:	Completed after 0 iterations at t[s]:  16358.70
	FillingsUpdate:  mu: -0.127200000  nElectrons: 223.865614  magneticMoment: [ Abs: 1.33189  Tot: -0.67260 ]
	SubspaceRotationAdjust: set factor to 0.238
ElecMinimize: Iter:  12  G: -358.972004566193846  |grad|_K:  3.269e-07  alpha:  7.335e-01  linmin: -9.826e-05  t[s]:  16420.21
	Linear fluid (dielectric constant: 78.4, screening length: 8.12261 Bohr) occupying 0.713441 of unit cell:	Completed after 7 iterations at t[s]:  16479.13
	Linear fluid (dielectric constant: 78.4, screening length: 8.12261 Bohr) occupying 0.713442 of unit cell:	Completed after 0 iterations at t[s]:  16523.35
	FillingsUpdate:  mu: -0.127200000  nElectrons: 223.860125  magneticMoment: [ Abs: 1.31555  Tot: -0.66175 ]
	SubspaceRotationAdjust: set factor to 0.25
ElecMinimize: Iter:  13  G: -358.972022732651681  |grad|_K:  2.416e-07  alpha:  7.939e-01  linmin: -5.409e-04  t[s]:  16584.98
	Linear fluid (dielectric constant: 78.4, screening length: 8.12261 Bohr) occupying 0.713457 of unit cell:	Completed after 4 iterations at t[s]:  16641.60
	Linear fluid (dielectric constant: 78.4, screening length: 8.12261 Bohr) occupying 0.713456 of unit cell:	Completed after 0 iterations at t[s]:  16685.58
	FillingsUpdate:  mu: -0.127200000  nElectrons: 223.862765  magneticMoment: [ Abs: 1.30682  Tot: -0.65280 ]
	SubspaceRotationAdjust: set factor to 0.245
ElecMinimize: Iter:  14  G: -358.972032506713049  |grad|_K:  2.159e-07  alpha:  7.415e-01  linmin:  2.425e-04  t[s]:  16747.16
	Linear fluid (dielectric constant: 78.4, screening length: 8.12261 Bohr) occupying 0.713467 of unit cell:	Completed after 3 iterations at t[s]:  16802.83
	Linear fluid (dielectric constant: 78.4, screening length: 8.12261 Bohr) occupying 0.713464 of unit cell:	Completed after 2 iterations at t[s]:  16849.21
	FillingsUpdate:  mu: -0.127200000  nElectrons: 223.862110  magneticMoment: [ Abs: 1.29766  Tot: -0.64901 ]
	SubspaceRotationAdjust: set factor to 0.241
ElecMinimize: Iter:  15  G: -358.972036892023254  |grad|_K:  1.524e-07  alpha:  4.870e-01  linmin: -2.134e-05  t[s]:  16911.18
	Linear fluid (dielectric constant: 78.4, screening length: 8.12261 Bohr) occupying 0.713466 of unit cell:	Completed after 2 iterations at t[s]:  16965.72
	Linear fluid (dielectric constant: 78.4, screening length: 8.12261 Bohr) occupying 0.713466 of unit cell:	Completed after 1 iterations at t[s]:  17011.79
	FillingsUpdate:  mu: -0.127200000  nElectrons: 223.862118  magneticMoment: [ Abs: 1.29033  Tot: -0.64662 ]
	SubspaceRotationAdjust: set factor to 0.276
ElecMinimize: Iter:  16  G: -358.972040091771419  |grad|_K:  9.988e-08  alpha:  6.501e-01  linmin: -1.056e-04  t[s]:  17073.25
	Linear fluid (dielectric constant: 78.4, screening length: 8.12261 Bohr) occupying 0.713464 of unit cell:	Completed after 3 iterations at t[s]:  17129.40
	Linear fluid (dielectric constant: 78.4, screening length: 8.12261 Bohr) occupying 0.713464 of unit cell:	Completed after 0 iterations at t[s]:  17173.52
	FillingsUpdate:  mu: -0.127200000  nElectrons: 223.861473  magneticMoment: [ Abs: 1.28537  Tot: -0.64634 ]
	SubspaceRotationAdjust: set factor to 0.324
ElecMinimize: Iter:  17  G: -358.972041369614658  |grad|_K:  7.218e-08  alpha:  5.960e-01  linmin:  4.968e-05  t[s]:  17235.08
	Linear fluid (dielectric constant: 78.4, screening length: 8.12261 Bohr) occupying 0.713461 of unit cell:	Completed after 1 iterations at t[s]:  17288.99
	Linear fluid (dielectric constant: 78.4, screening length: 8.12261 Bohr) occupying 0.713461 of unit cell:	Completed after 0 iterations at t[s]:  17333.27
	FillingsUpdate:  mu: -0.127200000  nElectrons: 223.861626  magneticMoment: [ Abs: 1.28088  Tot: -0.64611 ]
	SubspaceRotationAdjust: set factor to 0.39
ElecMinimize: Iter:  18  G: -358.972042108806420  |grad|_K:  5.152e-08  alpha:  6.785e-01  linmin: -1.944e-04  t[s]:  17396.77
	Linear fluid (dielectric constant: 78.4, screening length: 8.12261 Bohr) occupying 0.713458 of unit cell:	Completed after 3 iterations at t[s]:  17452.41
	Linear fluid (dielectric constant: 78.4, screening length: 8.12261 Bohr) occupying 0.713458 of unit cell:	Completed after 0 iterations at t[s]:  17496.29
	FillingsUpdate:  mu: -0.127200000  nElectrons: 223.862409  magneticMoment: [ Abs: 1.27849  Tot: -0.64588 ]
	SubspaceRotationAdjust: set factor to 0.358
ElecMinimize: Iter:  19  G: -358.972042432492344  |grad|_K:  5.560e-08  alpha:  5.449e-01  linmin:  6.003e-04  t[s]:  17558.31
	Linear fluid (dielectric constant: 78.4, screening length: 8.12261 Bohr) occupying 0.713455 of unit cell:	Completed after 2 iterations at t[s]:  17613.51
	Linear fluid (dielectric constant: 78.4, screening length: 8.12261 Bohr) occupying 0.713456 of unit cell:	Completed after 0 iterations at t[s]:  17658.09
	FillingsUpdate:  mu: -0.127200000  nElectrons: 223.861988  magneticMoment: [ Abs: 1.27514  Tot: -0.64655 ]
	SubspaceRotationAdjust: set factor to 0.232
ElecMinimize: Iter:  20  G: -358.972042639566155  |grad|_K:  4.461e-08  alpha:  3.541e-01  linmin:  9.533e-04  t[s]:  17720.57
	Linear fluid (dielectric constant: 78.4, screening length: 8.12261 Bohr) occupying 0.713455 of unit cell:	Completed after 2 iterations at t[s]:  17775.75
	Linear fluid (dielectric constant: 78.4, screening length: 8.12261 Bohr) occupying 0.713455 of unit cell:	Completed after 0 iterations at t[s]:  17820.27
	FillingsUpdate:  mu: -0.127200000  nElectrons: 223.862345  magneticMoment: [ Abs: 1.27384  Tot: -0.64660 ]
	SubspaceRotationAdjust: set factor to 0.153
ElecMinimize: Iter:  21  G: -358.972042707015191  |grad|_K:  2.683e-08  alpha:  2.414e-01  linmin: -5.188e-04  t[s]:  17882.79
	Linear fluid (dielectric constant: 78.4, screening length: 8.12261 Bohr) occupying 0.713455 of unit cell:	Completed after 0 iterations at t[s]:  17935.59
	Linear fluid (dielectric constant: 78.4, screening length: 8.12261 Bohr) occupying 0.713455 of unit cell:	Completed after 1 iterations at t[s]:  17981.93
	FillingsUpdate:  mu: -0.127200000  nElectrons: 223.862413  magneticMoment: [ Abs: 1.27197  Tot: -0.64689 ]
	SubspaceRotationAdjust: set factor to 0.171
ElecMinimize: Iter:  22  G: -358.972042770161693  |grad|_K:  2.183e-08  alpha:  5.928e-01  linmin:  1.166e-03  t[s]:  18044.32
ElecMinimize: Converged (|Delta G|<1.000000e-07 for 2 iters).
Setting wave functions to eigenvectors of Hamiltonian
Converging empty states (this may take a while): |deigs|: 4.597e-04
Single-point solvation energy estimate, DeltaG = +0.001302747637055

Computing DFT-D3 correction:
# coordination-number C 3.299 3.321 3.335 3.331 3.312 3.290 3.312 3.497 3.328 3.312 3.302 3.336 3.299 3.299 3.321 3.766 3.268 3.301 3.319 3.333 3.326 3.303 3.299 3.328 3.335 3.319 3.299 3.268 3.497 3.321 3.301 3.303 3.312 3.299 3.312 3.326 3.766 3.336 3.290 3.312 3.331 3.333 3.321 3.302 2.020
# coordination-number N 3.165 3.184 3.165 3.184
# coordination-number Ti 5.714
# coordination-number O 1.051 1.014
# diagonal-C6 C 24.29 24.07 23.92 23.96 24.17 24.37 24.16 21.69 23.99 24.16 24.27 23.91 24.29 24.29 24.07 18.91 24.57 24.27 24.09 23.94 24.02 24.25 24.29 23.99 23.92 24.09 24.29 24.57 21.68 24.07 24.27 24.25 24.16 24.29 24.17 24.02 18.90 23.91 24.37 24.16 23.96 23.94 24.07 24.27 29.45
# diagonal-C6 N 15.60 15.60 15.60 15.60
# diagonal-C6 Ti 321.59
# diagonal-C6 O 12.77 12.80
EvdW_6 =   -0.038232
EvdW_8 =   -0.030621
Completed 1 of 10 configurations.

Computing DFT-D3 correction:
# coordination-number C 3.299 3.321 3.335 3.331 3.312 3.290 3.312 3.497 3.328 3.312 3.302 3.336 3.299 3.299 3.321 3.766 3.268 3.301 3.319 3.333 3.326 3.303 3.299 3.328 3.335 3.319 3.299 3.268 3.497 3.321 3.301 3.303 3.312 3.299 3.312 3.326 3.766 3.336 3.290 3.312 3.331 3.333 3.321 3.302 2.020
# coordination-number N 3.165 3.184 3.165 3.184
# coordination-number Ti 5.714
# coordination-number O 1.051 1.014
# diagonal-C6 C 24.29 24.07 23.92 23.96 24.17 24.37 24.16 21.69 23.99 24.16 24.27 23.91 24.29 24.29 24.07 18.91 24.57 24.27 24.09 23.94 24.02 24.25 24.29 23.99 23.92 24.09 24.29 24.57 21.68 24.07 24.27 24.25 24.16 24.29 24.17 24.02 18.90 23.91 24.37 24.16 23.96 23.94 24.07 24.27 29.45
# diagonal-C6 N 15.60 15.60 15.60 15.60
# diagonal-C6 Ti 321.59
# diagonal-C6 O 12.77 12.80
EvdW_6 =   -0.038232
EvdW_8 =   -0.030621
Shifting auxilliary hamiltonian by -0.000001 to set nElectrons=223.862413

-------- Electronic minimization -----------
	Linear fluid (dielectric constant: 78.4, screening length: 8.12261 Bohr) occupying 0.713453 of unit cell:	Completed after 6 iterations at t[s]:  19150.85
	FillingsUpdate:  mu: -0.127200000  nElectrons: 223.862413  magneticMoment: [ Abs: 1.27034  Tot: -0.64728 ]
ElecMinimize: Iter:   0  G: -358.971873766670740  |grad|_K:  6.988e-07  alpha:  1.000e+00
	Linear fluid (dielectric constant: 78.4, screening length: 8.12261 Bohr) occupying 0.713449 of unit cell:	Completed after 6 iterations at t[s]:  19278.53
	Linear fluid (dielectric constant: 78.4, screening length: 8.12261 Bohr) occupying 0.713451 of unit cell:	Completed after 3 iterations at t[s]:  19326.29
	FillingsUpdate:  mu: -0.127200000  nElectrons: 223.862770  magneticMoment: [ Abs: 1.27072  Tot: -0.64718 ]
	SubspaceRotationAdjust: set factor to 0.167
ElecMinimize: Iter:   1  G: -358.971933612254190  |grad|_K:  2.727e-07  alpha:  5.825e-01  linmin:  4.099e-05  t[s]:  19387.96
	Linear fluid (dielectric constant: 78.4, screening length: 8.12261 Bohr) occupying 0.713450 of unit cell:	Completed after 2 iterations at t[s]:  19442.42
	Linear fluid (dielectric constant: 78.4, screening length: 8.12261 Bohr) occupying 0.713449 of unit cell:	Completed after 2 iterations at t[s]:  19489.29
	FillingsUpdate:  mu: -0.127200000  nElectrons: 223.862260  magneticMoment: [ Abs: 1.27019  Tot: -0.64754 ]
	SubspaceRotationAdjust: set factor to 0.208
ElecMinimize: Iter:   2  G: -358.971944436952299  |grad|_K:  1.518e-07  alpha:  6.934e-01  linmin: -6.232e-05  t[s]:  19551.30
	Linear fluid (dielectric constant: 78.4, screening length: 8.12261 Bohr) occupying 0.713449 of unit cell:	Completed after 2 iterations at t[s]:  19605.86
	Linear fluid (dielectric constant: 78.4, screening length: 8.12261 Bohr) occupying 0.713448 of unit cell:	Completed after 1 iterations at t[s]:  19651.88
	FillingsUpdate:  mu: -0.127200000  nElectrons: 223.862802  magneticMoment: [ Abs: 1.27071  Tot: -0.64735 ]
	SubspaceRotationAdjust: set factor to 0.237
ElecMinimize: Iter:   3  G: -358.971948644898248  |grad|_K:  1.267e-07  alpha:  8.667e-01  linmin: -5.977e-05  t[s]:  19713.58
	Linear fluid (dielectric constant: 78.4, screening length: 8.12261 Bohr) occupying 0.713447 of unit cell:	Completed after 3 iterations at t[s]:  19768.98
	Linear fluid (dielectric constant: 78.4, screening length: 8.12261 Bohr) occupying 0.713448 of unit cell:	Completed after 2 iterations at t[s]:  19815.93
	FillingsUpdate:  mu: -0.127200000  nElectrons: 223.862129  magneticMoment: [ Abs: 1.26994  Tot: -0.64778 ]
	SubspaceRotationAdjust: set factor to 0.281
ElecMinimize: Iter:   4  G: -358.971950369102160  |grad|_K:  8.794e-08  alpha:  4.996e-01  linmin:  6.715e-05  t[s]:  19877.80
	Linear fluid (dielectric constant: 78.4, screening length: 8.12261 Bohr) occupying 0.713448 of unit cell:	Completed after 2 iterations at t[s]:  19932.22
	Linear fluid (dielectric constant: 78.4, screening length: 8.12261 Bohr) occupying 0.713448 of unit cell:	Completed after 1 iterations at t[s]:  19978.32
	FillingsUpdate:  mu: -0.127200000  nElectrons: 223.862934  magneticMoment: [ Abs: 1.27052  Tot: -0.64738 ]
	SubspaceRotationAdjust: set factor to 0.342
ElecMinimize: Iter:   5  G: -358.971951660535922  |grad|_K:  5.589e-08  alpha:  7.985e-01  linmin: -1.405e-04  t[s]:  20041.86
	Linear fluid (dielectric constant: 78.4, screening length: 8.12261 Bohr) occupying 0.713447 of unit cell:	Completed after 3 iterations at t[s]:  20097.11
	Linear fluid (dielectric constant: 78.4, screening length: 8.12261 Bohr) occupying 0.713447 of unit cell:	Completed after 0 iterations at t[s]:  20141.32
	FillingsUpdate:  mu: -0.127200000  nElectrons: 223.862450  magneticMoment: [ Abs: 1.27005  Tot: -0.64775 ]
	SubspaceRotationAdjust: set factor to 0.37
ElecMinimize: Iter:   6  G: -358.971952271035946  |grad|_K:  3.622e-08  alpha:  8.923e-01  linmin: -1.539e-04  t[s]:  20205.29
	Linear fluid (dielectric constant: 78.4, screening length: 8.12261 Bohr) occupying 0.713447 of unit cell:	Completed after 1 iterations at t[s]:  20259.02
	Linear fluid (dielectric constant: 78.4, screening length: 8.12261 Bohr) occupying 0.713447 of unit cell:	Completed after 0 iterations at t[s]:  20303.18
	FillingsUpdate:  mu: -0.127200000  nElectrons: 223.862951  magneticMoment: [ Abs: 1.27037  Tot: -0.64747 ]
	SubspaceRotationAdjust: set factor to 0.365
ElecMinimize: Iter:   7  G: -358.971952459340798  |grad|_K:  2.764e-08  alpha:  6.417e-01  linmin:  1.542e-04  t[s]:  20365.02
	Linear fluid (dielectric constant: 78.4, screening length: 8.12261 Bohr) occupying 0.713447 of unit cell:	Completed after 1 iterations at t[s]:  20419.15
	Linear fluid (dielectric constant: 78.4, screening length: 8.12261 Bohr) occupying 0.713447 of unit cell:	Completed after 0 iterations at t[s]:  20463.74
	FillingsUpdate:  mu: -0.127200000  nElectrons: 223.862678  magneticMoment: [ Abs: 1.27016  Tot: -0.64767 ]
	SubspaceRotationAdjust: set factor to 0.326
ElecMinimize: Iter:   8  G: -358.971952521390847  |grad|_K:  1.762e-08  alpha:  4.532e-01  linmin: -1.313e-04  t[s]:  20524.90
	Linear fluid (dielectric constant: 78.4, screening length: 8.12261 Bohr) occupying 0.713447 of unit cell:	Completed after 0 iterations at t[s]:  20575.65
	Linear fluid (dielectric constant: 78.4, screening length: 8.12261 Bohr) occupying 0.713447 of unit cell:	Completed after 0 iterations at t[s]:  20620.03
	FillingsUpdate:  mu: -0.127200000  nElectrons: 223.862776  magneticMoment: [ Abs: 1.27029  Tot: -0.64764 ]
	SubspaceRotationAdjust: set factor to 0.436
ElecMinimize: Iter:   9  G: -358.971952571699433  |grad|_K:  1.219e-08  alpha:  7.356e-01  linmin: -4.141e-06  t[s]:  20681.64
ElecMinimize: Converged (|Delta G|<1.000000e-07 for 2 iters).
Setting wave functions to eigenvectors of Hamiltonian
Converging empty states (this may take a while): |deigs|: 4.928e-08

Computing DFT-D3 correction:
# coordination-number C 3.299 3.321 3.335 3.331 3.312 3.290 3.312 3.497 3.328 3.312 3.302 3.336 3.299 3.299 3.321 3.766 3.268 3.301 3.319 3.333 3.326 3.303 3.299 3.328 3.335 3.319 3.299 3.268 3.497 3.321 3.301 3.303 3.312 3.299 3.312 3.326 3.766 3.336 3.290 3.312 3.331 3.333 3.321 3.302 2.020
# coordination-number N 3.165 3.184 3.165 3.184
# coordination-number Ti 5.714
# coordination-number O 1.051 1.014
# diagonal-C6 C 24.29 24.07 23.92 23.96 24.17 24.37 24.16 21.69 23.99 24.16 24.27 23.91 24.29 24.29 24.07 18.91 24.57 24.27 24.09 23.94 24.02 24.25 24.29 23.99 23.92 24.09 24.29 24.57 21.68 24.07 24.27 24.25 24.16 24.29 24.17 24.02 18.90 23.91 24.37 24.16 23.96 23.94 24.07 24.27 29.45
# diagonal-C6 N 15.60 15.60 15.60 15.60
# diagonal-C6 Ti 321.59
# diagonal-C6 O 12.77 12.80
EvdW_6 =   -0.038232
EvdW_8 =   -0.030621
Completed 2 of 10 configurations.

Computing DFT-D3 correction:
# coordination-number C 3.299 3.321 3.335 3.331 3.312 3.290 3.312 3.497 3.328 3.312 3.302 3.336 3.299 3.299 3.321 3.766 3.268 3.301 3.319 3.333 3.326 3.303 3.299 3.328 3.335 3.319 3.299 3.268 3.497 3.321 3.301 3.303 3.312 3.299 3.312 3.326 3.766 3.336 3.290 3.312 3.331 3.333 3.321 3.302 2.020
# coordination-number N 3.165 3.184 3.165 3.184
# coordination-number Ti 5.714
# coordination-number O 1.051 1.014
# diagonal-C6 C 24.29 24.07 23.92 23.96 24.17 24.37 24.16 21.69 23.99 24.16 24.27 23.91 24.29 24.29 24.07 18.91 24.57 24.27 24.09 23.94 24.02 24.25 24.29 23.99 23.92 24.09 24.29 24.57 21.68 24.07 24.27 24.25 24.16 24.29 24.17 24.02 18.90 23.91 24.37 24.16 23.96 23.94 24.07 24.27 29.45
# diagonal-C6 N 15.60 15.60 15.60 15.60
# diagonal-C6 Ti 321.59
# diagonal-C6 O 12.77 12.80
EvdW_6 =   -0.038232
EvdW_8 =   -0.030621
Shifting auxilliary hamiltonian by 0.000005 to set nElectrons=223.862776

-------- Electronic minimization -----------
	Linear fluid (dielectric constant: 78.4, screening length: 8.12261 Bohr) occupying 0.713449 of unit cell:	Completed after 8 iterations at t[s]:  20909.67
	FillingsUpdate:  mu: -0.127200000  nElectrons: 223.862776  magneticMoment: [ Abs: 1.27099  Tot: -0.64780 ]
ElecMinimize: Iter:   0  G: -358.971925368438747  |grad|_K:  8.373e-07  alpha:  1.000e+00
	Linear fluid (dielectric constant: 78.4, screening length: 8.12261 Bohr) occupying 0.713454 of unit cell:	Completed after 8 iterations at t[s]:  21030.26
	Linear fluid (dielectric constant: 78.4, screening length: 8.12261 Bohr) occupying 0.713452 of unit cell:	Completed after 7 iterations at t[s]:  21077.96
[...]
disp C   0.000000000000000   0.000000000000000   0.000000000000000
disp C   0.000000000000000   0.000000000000000   0.000000000000000
disp C   0.000000000000000   0.000000000000000   0.000000000000000
disp C   0.000000000000000   0.000000000000000   0.000000000000000
disp C   0.000000000000000   0.000000000000000   0.000000000000000
disp C   0.000000000000000   0.000000000000000   0.000000000000000
disp C   0.000000000000000   0.000000000000000   0.000000000000000
disp C   0.000000000000000   0.000000000000000   0.000000000000000
disp C   0.000000000000000   0.000000000000000   0.000000000000000
disp C   0.000000000000000   0.000000000000000   0.000000000000000
disp C   0.000000000000000   0.000000000000000   0.000000000000000
disp C   0.000000000000000   0.000000000000000   0.000000000000000
disp C   0.000000000000000   0.000000000000000   0.000000000000000
disp C   0.000000000000000   0.000000000000000   0.000000000000000
disp C   0.000000000000000   0.000000000000000   0.000000000000000
disp C  -0.002207106792488   0.001293909079785   0.002096154335075
disp N   0.000000000000000   0.000000000000000   0.000000000000000
disp N   0.000000000000000   0.000000000000000   0.000000000000000
disp N   0.000000000000000   0.000000000000000   0.000000000000000
disp N   0.000000000000000   0.000000000000000   0.000000000000000
disp Ti   0.000000000000000   0.000000000000000   0.000000000000000
disp O  -0.002440194944735  -0.000066260530165   0.001548763438769
disp O  -0.002016221454101   0.002516583037011   0.002705404941257

Real mode 3:
Frequency: 0.002540 Eh [ 557 cm^-1 ]
Degeneracy: 1 of 1
IR intensity: 0.0892 e^2/amu [ 86.9 km/mol ]
Displacements:
disp C   0.000000000000000   0.000000000000000   0.000000000000000
disp C   0.000000000000000   0.000000000000000   0.000000000000000
disp C   0.000000000000000   0.000000000000000   0.000000000000000
disp C   0.000000000000000   0.000000000000000   0.000000000000000
disp C   0.000000000000000   0.000000000000000   0.000000000000000
disp C   0.000000000000000   0.000000000000000   0.000000000000000
disp C   0.000000000000000   0.000000000000000   0.000000000000000
disp C   0.000000000000000   0.000000000000000   0.000000000000000
disp C   0.000000000000000   0.000000000000000   0.000000000000000
disp C   0.000000000000000   0.000000000000000   0.000000000000000
disp C   0.000000000000000   0.000000000000000   0.000000000000000
disp C   0.000000000000000   0.000000000000000   0.000000000000000
disp C   0.000000000000000   0.000000000000000   0.000000000000000
disp C   0.000000000000000   0.000000000000000   0.000000000000000
disp C   0.000000000000000   0.000000000000000   0.000000000000000
disp C   0.000000000000000   0.000000000000000   0.000000000000000
disp C   0.000000000000000   0.000000000000000   0.000000000000000
disp C   0.000000000000000   0.000000000000000   0.000000000000000
disp C   0.000000000000000   0.000000000000000   0.000000000000000
disp C   0.000000000000000   0.000000000000000   0.000000000000000
disp C   0.000000000000000   0.000000000000000   0.000000000000000
disp C   0.000000000000000   0.000000000000000   0.000000000000000
disp C   0.000000000000000   0.000000000000000   0.000000000000000
disp C   0.000000000000000   0.000000000000000   0.000000000000000
disp C   0.000000000000000   0.000000000000000   0.000000000000000
disp C   0.000000000000000   0.000000000000000   0.000000000000000
disp C   0.000000000000000   0.000000000000000   0.000000000000000
disp C   0.000000000000000   0.000000000000000   0.000000000000000
disp C   0.000000000000000   0.000000000000000   0.000000000000000
disp C   0.000000000000000   0.000000000000000   0.000000000000000
disp C   0.000000000000000   0.000000000000000   0.000000000000000
disp C   0.000000000000000   0.000000000000000   0.000000000000000
disp C   0.000000000000000   0.000000000000000   0.000000000000000
disp C   0.000000000000000   0.000000000000000   0.000000000000000
disp C   0.000000000000000   0.000000000000000   0.000000000000000
disp C   0.000000000000000   0.000000000000000   0.000000000000000
disp C   0.000000000000000   0.000000000000000   0.000000000000000
disp C   0.000000000000000   0.000000000000000   0.000000000000000
disp C   0.000000000000000   0.000000000000000   0.000000000000000
disp C   0.000000000000000   0.000000000000000   0.000000000000000
disp C   0.000000000000000   0.000000000000000   0.000000000000000
disp C   0.000000000000000   0.000000000000000   0.000000000000000
disp C   0.000000000000000   0.000000000000000   0.000000000000000
disp C   0.000000000000000   0.000000000000000   0.000000000000000
disp C   0.001488943715123  -0.002501444902808   0.005105239698480
disp N   0.000000000000000   0.000000000000000   0.000000000000000
disp N   0.000000000000000   0.000000000000000   0.000000000000000
disp N   0.000000000000000   0.000000000000000   0.000000000000000
disp N   0.000000000000000   0.000000000000000   0.000000000000000
disp Ti   0.000000000000000   0.000000000000000   0.000000000000000
disp O  -0.000488334305492   0.001024391947404  -0.001760440336660
disp O  -0.000154903040787   0.001067838552936  -0.001675798954714

Real mode 4:
Frequency: 0.002825 Eh [ 620 cm^-1 ]
Degeneracy: 1 of 1
IR intensity: 0.0831 e^2/amu [ 81.0 km/mol ]
Displacements:
disp C   0.000000000000000   0.000000000000000   0.000000000000000
disp C   0.000000000000000   0.000000000000000   0.000000000000000
disp C   0.000000000000000   0.000000000000000   0.000000000000000
disp C   0.000000000000000   0.000000000000000   0.000000000000000
disp C   0.000000000000000   0.000000000000000   0.000000000000000
disp C   0.000000000000000   0.000000000000000   0.000000000000000
disp C   0.000000000000000   0.000000000000000   0.000000000000000
disp C   0.000000000000000   0.000000000000000   0.000000000000000
disp C   0.000000000000000   0.000000000000000   0.000000000000000
disp C   0.000000000000000   0.000000000000000   0.000000000000000
disp C   0.000000000000000   0.000000000000000   0.000000000000000
disp C   0.000000000000000   0.000000000000000   0.000000000000000
disp C   0.000000000000000   0.000000000000000   0.000000000000000
disp C   0.000000000000000   0.000000000000000   0.000000000000000
disp C   0.000000000000000   0.000000000000000   0.000000000000000
disp C   0.000000000000000   0.000000000000000   0.000000000000000
disp C   0.000000000000000   0.000000000000000   0.000000000000000
disp C   0.000000000000000   0.000000000000000   0.000000000000000
disp C   0.000000000000000   0.000000000000000   0.000000000000000
disp C   0.000000000000000   0.000000000000000   0.000000000000000
disp C   0.000000000000000   0.000000000000000   0.000000000000000
disp C   0.000000000000000   0.000000000000000   0.000000000000000
disp C   0.000000000000000   0.000000000000000   0.000000000000000
disp C   0.000000000000000   0.000000000000000   0.000000000000000
disp C   0.000000000000000   0.000000000000000   0.000000000000000
disp C   0.000000000000000   0.000000000000000   0.000000000000000
disp C   0.000000000000000   0.000000000000000   0.000000000000000
disp C   0.000000000000000   0.000000000000000   0.000000000000000
disp C   0.000000000000000   0.000000000000000   0.000000000000000
disp C   0.000000000000000   0.000000000000000   0.000000000000000
disp C   0.000000000000000   0.000000000000000   0.000000000000000
disp C   0.000000000000000   0.000000000000000   0.000000000000000
disp C   0.000000000000000   0.000000000000000   0.000000000000000
disp C   0.000000000000000   0.000000000000000   0.000000000000000
disp C   0.000000000000000   0.000000000000000   0.000000000000000
disp C   0.000000000000000   0.000000000000000   0.000000000000000
disp C   0.000000000000000   0.000000000000000   0.000000000000000
disp C   0.000000000000000   0.000000000000000   0.000000000000000
disp C   0.000000000000000   0.000000000000000   0.000000000000000
disp C   0.000000000000000   0.000000000000000   0.000000000000000
disp C   0.000000000000000   0.000000000000000   0.000000000000000
disp C   0.000000000000000   0.000000000000000   0.000000000000000
disp C   0.000000000000000   0.000000000000000   0.000000000000000
disp C   0.000000000000000   0.000000000000000   0.000000000000000
disp C   0.000708344963624   0.005058546777307   0.002551950414176
disp N   0.000000000000000   0.000000000000000   0.000000000000000
disp N   0.000000000000000   0.000000000000000   0.000000000000000
disp N   0.000000000000000   0.000000000000000   0.000000000000000
disp N   0.000000000000000   0.000000000000000   0.000000000000000
disp Ti   0.000000000000000   0.000000000000000   0.000000000000000
disp O  -0.000291508343958  -0.002009013343766  -0.000822168431081
disp O  -0.000144549202359  -0.002035319254626  -0.000922704497688

Real mode 5:
Frequency: 0.006083 Eh [ 1335 cm^-1 ]
Degeneracy: 1 of 1
IR intensity: 0.0042 e^2/amu [ 4.1 km/mol ]
Displacements:
disp C   0.000000000000000   0.000000000000000   0.000000000000000
disp C   0.000000000000000   0.000000000000000   0.000000000000000
disp C   0.000000000000000   0.000000000000000   0.000000000000000
disp C   0.000000000000000   0.000000000000000   0.000000000000000
disp C   0.000000000000000   0.000000000000000   0.000000000000000
disp C   0.000000000000000   0.000000000000000   0.000000000000000
disp C   0.000000000000000   0.000000000000000   0.000000000000000
disp C   0.000000000000000   0.000000000000000   0.000000000000000
disp C   0.000000000000000   0.000000000000000   0.000000000000000
disp C   0.000000000000000   0.000000000000000   0.000000000000000
disp C   0.000000000000000   0.000000000000000   0.000000000000000
disp C   0.000000000000000   0.000000000000000   0.000000000000000
disp C   0.000000000000000   0.000000000000000   0.000000000000000
disp C   0.000000000000000   0.000000000000000   0.000000000000000
disp C   0.000000000000000   0.000000000000000   0.000000000000000
disp C   0.000000000000000   0.000000000000000   0.000000000000000
disp C   0.000000000000000   0.000000000000000   0.000000000000000
disp C   0.000000000000000   0.000000000000000   0.000000000000000
disp C   0.000000000000000   0.000000000000000   0.000000000000000
disp C   0.000000000000000   0.000000000000000   0.000000000000000
disp C   0.000000000000000   0.000000000000000   0.000000000000000
disp C   0.000000000000000   0.000000000000000   0.000000000000000
disp C   0.000000000000000   0.000000000000000   0.000000000000000
disp C   0.000000000000000   0.000000000000000   0.000000000000000
disp C   0.000000000000000   0.000000000000000   0.000000000000000
disp C   0.000000000000000   0.000000000000000   0.000000000000000
disp C   0.000000000000000   0.000000000000000   0.000000000000000
disp C   0.000000000000000   0.000000000000000   0.000000000000000
disp C   0.000000000000000   0.000000000000000   0.000000000000000
disp C   0.000000000000000   0.000000000000000   0.000000000000000
disp C   0.000000000000000   0.000000000000000   0.000000000000000
disp C   0.000000000000000   0.000000000000000   0.000000000000000
disp C   0.000000000000000   0.000000000000000   0.000000000000000
disp C   0.000000000000000   0.000000000000000   0.000000000000000
disp C   0.000000000000000   0.000000000000000   0.000000000000000
disp C   0.000000000000000   0.000000000000000   0.000000000000000
disp C   0.000000000000000   0.000000000000000   0.000000000000000
disp C   0.000000000000000   0.000000000000000   0.000000000000000
disp C   0.000000000000000   0.000000000000000   0.000000000000000
disp C   0.000000000000000   0.000000000000000   0.000000000000000
disp C   0.000000000000000   0.000000000000000   0.000000000000000
disp C   0.000000000000000   0.000000000000000   0.000000000000000
disp C   0.000000000000000   0.000000000000000   0.000000000000000
disp C   0.000000000000000   0.000000000000000   0.000000000000000
disp C  -0.000166676222003   0.000028599736546   0.000316708658028
disp N   0.000000000000000   0.000000000000000   0.000000000000000
disp N   0.000000000000000   0.000000000000000   0.000000000000000
disp N   0.000000000000000   0.000000000000000   0.000000000000000
disp N   0.000000000000000   0.000000000000000   0.000000000000000
disp Ti   0.000000000000000   0.000000000000000   0.000000000000000
disp O   0.004017058387282  -0.000003358845785  -0.001120989739845
disp O  -0.003981096339990   0.000030212957377   0.000973310813986

Real mode 6:
Frequency: 0.010768 Eh [ 2363 cm^-1 ]
Degeneracy: 1 of 1
IR intensity: 0.9497 e^2/amu [ 925.9 km/mol ]
Displacements:
disp C   0.000000000000000   0.000000000000000   0.000000000000000
disp C   0.000000000000000   0.000000000000000   0.000000000000000
disp C   0.000000000000000   0.000000000000000   0.000000000000000
disp C   0.000000000000000   0.000000000000000   0.000000000000000
disp C   0.000000000000000   0.000000000000000   0.000000000000000
disp C   0.000000000000000   0.000000000000000   0.000000000000000
disp C   0.000000000000000   0.000000000000000   0.000000000000000
disp C   0.000000000000000   0.000000000000000   0.000000000000000
disp C   0.000000000000000   0.000000000000000   0.000000000000000
disp C   0.000000000000000   0.000000000000000   0.000000000000000
disp C   0.000000000000000   0.000000000000000   0.000000000000000
disp C   0.000000000000000   0.000000000000000   0.000000000000000
disp C   0.000000000000000   0.000000000000000   0.000000000000000
disp C   0.000000000000000   0.000000000000000   0.000000000000000
disp C   0.000000000000000   0.000000000000000   0.000000000000000
disp C   0.000000000000000   0.000000000000000   0.000000000000000
disp C   0.000000000000000   0.000000000000000   0.000000000000000
disp C   0.000000000000000   0.000000000000000   0.000000000000000
disp C   0.000000000000000   0.000000000000000   0.000000000000000
disp C   0.000000000000000   0.000000000000000   0.000000000000000
disp C   0.000000000000000   0.000000000000000   0.000000000000000
disp C   0.000000000000000   0.000000000000000   0.000000000000000
disp C   0.000000000000000   0.000000000000000   0.000000000000000
disp C   0.000000000000000   0.000000000000000   0.000000000000000
disp C   0.000000000000000   0.000000000000000   0.000000000000000
disp C   0.000000000000000   0.000000000000000   0.000000000000000
disp C   0.000000000000000   0.000000000000000   0.000000000000000
disp C   0.000000000000000   0.000000000000000   0.000000000000000
disp C   0.000000000000000   0.000000000000000   0.000000000000000
disp C   0.000000000000000   0.000000000000000   0.000000000000000
disp C   0.000000000000000   0.000000000000000   0.000000000000000
disp C   0.000000000000000   0.000000000000000   0.000000000000000
disp C   0.000000000000000   0.000000000000000   0.000000000000000
disp C   0.000000000000000   0.000000000000000   0.000000000000000
disp C   0.000000000000000   0.000000000000000   0.000000000000000
disp C   0.000000000000000   0.000000000000000   0.000000000000000
disp C   0.000000000000000   0.000000000000000   0.000000000000000
disp C   0.000000000000000   0.000000000000000   0.000000000000000
disp C   0.000000000000000   0.000000000000000   0.000000000000000
disp C   0.000000000000000   0.000000000000000   0.000000000000000
disp C   0.000000000000000   0.000000000000000   0.000000000000000
disp C   0.000000000000000   0.000000000000000   0.000000000000000
disp C   0.000000000000000   0.000000000000000   0.000000000000000
disp C   0.000000000000000   0.000000000000000   0.000000000000000
disp C  -0.005569055443958   0.000007977272549   0.001487553155494
disp N   0.000000000000000   0.000000000000000   0.000000000000000
disp N   0.000000000000000   0.000000000000000   0.000000000000000
disp N   0.000000000000000   0.000000000000000   0.000000000000000
disp N   0.000000000000000   0.000000000000000   0.000000000000000
disp Ti   0.000000000000000   0.000000000000000   0.000000000000000
disp O   0.001940268978685  -0.000002219871175  -0.000527263918494
disp O   0.002235859842192  -0.000012553317933  -0.000549024262267

Vibrational free energy components at T = 298 K:
	ZPE:          0.011536
	Evib:         0.013371
	TSvib:        0.003855
	Avib:         0.009516


Dumping 'jdft.n_up' ... done
Dumping 'jdft.n_dn' ... done
Dumping 'jdft.tau_up' ... done
Dumping 'jdft.tau_dn' ... done
Dumping 'jdft.eigenvals' ... done
Dumping 'jdft.eigStats' ... 
	eMin: -2.269143 at state 9 ( [ +0.000000 +0.000000 +0.000000 ] spin -1 )
	HOMO: -0.127220 at state 5 ( [ +0.333333 -0.333333 +0.000000 ] spin 1 )
	mu  : -0.127200
	LUMO: -0.126790 at state 1 ( [ +0.000000 +0.333333 +0.000000 ] spin 1 )
	eMax: +0.019699 at state 0 ( [ +0.000000 +0.000000 +0.000000 ] spin 1 )
	HOMO-LUMO gap: +0.000430
	Optical gap  : +0.013690 at state 0 ( [ +0.000000 +0.000000 +0.000000 ] spin 1 )
Dumping 'jdft.kPts' ... done
Dumping 'jdft.dosUp' ... done.
Dumping 'jdft.dosDn' ... done.
End date and time: Wed Nov 23 04:29:10 2022  (Duration: 0-10:32:00.54)
Done!

PROFILER:             augmentDensityGrid     0.983097 +/-     1.088108 s, 1708 calls,   1679.129256 s total
PROFILER:         augmentDensityGridGrad     0.672066 +/-     0.739603 s,  932 calls,    626.365958 s total
PROFILER:        augmentDensitySpherical     0.000685 +/-     0.000888 s, 1708 calls,      1.169505 s total
PROFILER:    augmentDensitySphericalGrad     0.000842 +/-     0.002014 s, 1216 calls,      1.024262 s total
PROFILER:                 augmentOverlap     2.186738 +/-     2.887612 s, 3424 calls,   7487.390460 s total
PROFILER:        ColumnBundle::randomize     0.006553 +/-     0.000000 s,    1 calls,      0.006553 s total
PROFILER:                     diagouterI    20.200284 +/-     3.914375 s,  430 calls,   8686.122123 s total
PROFILER:              EdensityAndVscloc     7.227309 +/-     5.999407 s,  428 calls,   3093.288124 s total
PROFILER:                     EnlAndGrad     0.002157 +/-     0.003041 s, 1768 calls,      3.814230 s total
PROFILER:            ExCorrCommunication     0.079092 +/-     0.086527 s, 2680 calls,    211.965878 s total
PROFILER:               ExCorrFunctional     0.028565 +/-     0.004810 s,  459 calls,     13.111482 s total
PROFILER:                    ExCorrTotal     0.817672 +/-     0.187546 s,  459 calls,    375.311275 s total
PROFILER:                   Idag_DiagV_I    34.063137 +/-    14.399783 s,  294 calls,  10014.562178 s total
PROFILER:                    initWeights     2.329287 +/-     0.000000 s,    1 calls,      2.329287 s total
PROFILER:                    inv(matrix)     0.003034 +/-     0.003553 s,  358 calls,      1.086075 s total
PROFILER:            matrix::diagonalize     0.012032 +/-     0.006776 s,  702 calls,      8.446552 s total
PROFILER:                    matrix::set     0.000003 +/-     0.000003 s, 39346 calls,      0.106839 s total
PROFILER:            orthoMatrix(matrix)     0.002819 +/-     0.001063 s,  420 calls,      1.183828 s total
PROFILER:     RadialFunctionR::transform     0.017968 +/-     0.158136 s,  141 calls,      2.533478 s total
PROFILER:                    reduceKmesh     0.000001 +/-     0.000000 s,    1 calls,      0.000001 s total
PROFILER:   VanDerWaalsD3::energyAndGrad     0.039379 +/-     0.001760 s,   21 calls,      0.826951 s total
PROFILER:               WavefunctionDrag    35.955443 +/-     1.366599 s,   10 calls,    359.554432 s total
PROFILER:                            Y*M     0.971686 +/-     1.119442 s, 6375 calls,   6194.496829 s total
PROFILER:                          Y1^Y2     0.987331 +/-     1.157445 s, 4580 calls,   4521.976948 s total

MEMUSAGE:                   ColumnBundle     1.333771 GB
MEMUSAGE:        complexScalarFieldTilde     0.074158 GB
MEMUSAGE:                    IndexArrays     0.023178 GB
MEMUSAGE:                         matrix     0.020675 GB
MEMUSAGE:                           misc     0.050872 GB
MEMUSAGE:                    ScalarField     0.395508 GB
MEMUSAGE:               ScalarFieldTilde     0.262436 GB
MEMUSAGE:                          Total     1.650425 GB
