
*************** JDFTx 1.7.0 (git hash 5f12716a) ***************

Start date and time: Tue Nov 22 17:57:08 2022
Executable /home/nisi6161/jdftx_alpine/build/jdftx with command-line: -i in
Running on hosts (process indices):  c3cpu-a2-u21-4.rc.int.colorado.edu (0-17)
Divided in process groups (process indices):  0 (0)  1 (1)  2 (2)  3 (3)  4 (4)  5 (5)  6 (6)  7 (7)  8 (8)  9 (9)  10 (10)  11 (11)  12 (12)  13 (13)  14 (14)  15 (15)  16 (16)  17 (17)
Resource initialization completed at t[s]:      0.00
Run totals: 18 processes, 64 threads, 0 GPUs


Input parsed successfully to the following command list (including defaults):

basis kpoint-dependent
converge-empty-states yes
coords-type Cartesian
core-overlap-check none
coulomb-interaction Periodic
davidson-band-ratio 1.1
density-of-states Etol 1.000000e-06 Esigma 1.000000e-03 \
		Complete \
	Total \
	OrthoOrbital C 1   s \
	OrthoOrbital C 1   p \
	OrthoOrbital C 1   px \
	OrthoOrbital C 1   py \
	OrthoOrbital C 1   pz \
	OrthoOrbital C 2   s \
	OrthoOrbital C 2   p \
	OrthoOrbital C 2   px \
	OrthoOrbital C 2   py \
	OrthoOrbital C 2   pz \
	OrthoOrbital C 3   s \
	OrthoOrbital C 3   p \
	OrthoOrbital C 3   px \
	OrthoOrbital C 3   py \
	OrthoOrbital C 3   pz \
	OrthoOrbital C 4   s \
	OrthoOrbital C 4   p \
	OrthoOrbital C 4   px \
	OrthoOrbital C 4   py \
	OrthoOrbital C 4   pz \
	OrthoOrbital C 5   s \
	OrthoOrbital C 5   p \
	OrthoOrbital C 5   px \
	OrthoOrbital C 5   py \
	OrthoOrbital C 5   pz \
	OrthoOrbital C 6   s \
	OrthoOrbital C 6   p \
	OrthoOrbital C 6   px \
	OrthoOrbital C 6   py \
	OrthoOrbital C 6   pz \
	OrthoOrbital C 7   s \
	OrthoOrbital C 7   p \
	OrthoOrbital C 7   px \
	OrthoOrbital C 7   py \
	OrthoOrbital C 7   pz \
	OrthoOrbital C 8   s \
	OrthoOrbital C 8   p \
	OrthoOrbital C 8   px \
	OrthoOrbital C 8   py \
	OrthoOrbital C 8   pz \
	OrthoOrbital C 9   s \
	OrthoOrbital C 9   p \
	OrthoOrbital C 9   px \
	OrthoOrbital C 9   py \
	OrthoOrbital C 9   pz \
	OrthoOrbital C 10   s \
	OrthoOrbital C 10   p \
	OrthoOrbital C 10   px \
	OrthoOrbital C 10   py \
	OrthoOrbital C 10   pz \
	OrthoOrbital C 11   s \
	OrthoOrbital C 11   p \
	OrthoOrbital C 11   px \
	OrthoOrbital C 11   py \
	OrthoOrbital C 11   pz \
	OrthoOrbital C 12   s \
	OrthoOrbital C 12   p \
	OrthoOrbital C 12   px \
	OrthoOrbital C 12   py \
	OrthoOrbital C 12   pz \
	OrthoOrbital C 13   s \
	OrthoOrbital C 13   p \
	OrthoOrbital C 13   px \
	OrthoOrbital C 13   py \
	OrthoOrbital C 13   pz \
	OrthoOrbital C 14   s \
	OrthoOrbital C 14   p \
	OrthoOrbital C 14   px \
	OrthoOrbital C 14   py \
	OrthoOrbital C 14   pz \
	OrthoOrbital C 15   s \
	OrthoOrbital C 15   p \
	OrthoOrbital C 15   px \
	OrthoOrbital C 15   py \
	OrthoOrbital C 15   pz \
	OrthoOrbital C 16   s \
	OrthoOrbital C 16   p \
	OrthoOrbital C 16   px \
	OrthoOrbital C 16   py \
	OrthoOrbital C 16   pz \
	OrthoOrbital C 17   s \
	OrthoOrbital C 17   p \
	OrthoOrbital C 17   px \
	OrthoOrbital C 17   py \
	OrthoOrbital C 17   pz \
	OrthoOrbital C 18   s \
	OrthoOrbital C 18   p \
	OrthoOrbital C 18   px \
	OrthoOrbital C 18   py \
	OrthoOrbital C 18   pz \
	OrthoOrbital C 19   s \
	OrthoOrbital C 19   p \
	OrthoOrbital C 19   px \
	OrthoOrbital C 19   py \
	OrthoOrbital C 19   pz \
	OrthoOrbital C 20   s \
	OrthoOrbital C 20   p \
	OrthoOrbital C 20   px \
	OrthoOrbital C 20   py \
	OrthoOrbital C 20   pz \
	OrthoOrbital C 21   s \
	OrthoOrbital C 21   p \
	OrthoOrbital C 21   px \
	OrthoOrbital C 21   py \
	OrthoOrbital C 21   pz \
	OrthoOrbital C 22   s \
	OrthoOrbital C 22   p \
	OrthoOrbital C 22   px \
	OrthoOrbital C 22   py \
	OrthoOrbital C 22   pz \
	OrthoOrbital C 23   s \
	OrthoOrbital C 23   p \
	OrthoOrbital C 23   px \
	OrthoOrbital C 23   py \
	OrthoOrbital C 23   pz \
	OrthoOrbital C 24   s \
	OrthoOrbital C 24   p \
	OrthoOrbital C 24   px \
	OrthoOrbital C 24   py \
	OrthoOrbital C 24   pz \
	OrthoOrbital C 25   s \
	OrthoOrbital C 25   p \
	OrthoOrbital C 25   px \
	OrthoOrbital C 25   py \
	OrthoOrbital C 25   pz \
	OrthoOrbital C 26   s \
	OrthoOrbital C 26   p \
	OrthoOrbital C 26   px \
	OrthoOrbital C 26   py \
	OrthoOrbital C 26   pz \
	OrthoOrbital C 27   s \
	OrthoOrbital C 27   p \
	OrthoOrbital C 27   px \
	OrthoOrbital C 27   py \
	OrthoOrbital C 27   pz \
	OrthoOrbital C 28   s \
	OrthoOrbital C 28   p \
	OrthoOrbital C 28   px \
	OrthoOrbital C 28   py \
	OrthoOrbital C 28   pz \
	OrthoOrbital C 29   s \
	OrthoOrbital C 29   p \
	OrthoOrbital C 29   px \
	OrthoOrbital C 29   py \
	OrthoOrbital C 29   pz \
	OrthoOrbital C 30   s \
	OrthoOrbital C 30   p \
	OrthoOrbital C 30   px \
	OrthoOrbital C 30   py \
	OrthoOrbital C 30   pz \
	OrthoOrbital C 31   s \
	OrthoOrbital C 31   p \
	OrthoOrbital C 31   px \
	OrthoOrbital C 31   py \
	OrthoOrbital C 31   pz \
	OrthoOrbital C 32   s \
	OrthoOrbital C 32   p \
	OrthoOrbital C 32   px \
	OrthoOrbital C 32   py \
	OrthoOrbital C 32   pz \
	OrthoOrbital C 33   s \
	OrthoOrbital C 33   p \
	OrthoOrbital C 33   px \
	OrthoOrbital C 33   py \
	OrthoOrbital C 33   pz \
	OrthoOrbital C 34   s \
	OrthoOrbital C 34   p \
	OrthoOrbital C 34   px \
	OrthoOrbital C 34   py \
	OrthoOrbital C 34   pz \
	OrthoOrbital C 35   s \
	OrthoOrbital C 35   p \
	OrthoOrbital C 35   px \
	OrthoOrbital C 35   py \
	OrthoOrbital C 35   pz \
	OrthoOrbital C 36   s \
	OrthoOrbital C 36   p \
	OrthoOrbital C 36   px \
	OrthoOrbital C 36   py \
	OrthoOrbital C 36   pz \
	OrthoOrbital C 37   s \
	OrthoOrbital C 37   p \
	OrthoOrbital C 37   px \
	OrthoOrbital C 37   py \
	OrthoOrbital C 37   pz \
	OrthoOrbital C 38   s \
	OrthoOrbital C 38   p \
	OrthoOrbital C 38   px \
	OrthoOrbital C 38   py \
	OrthoOrbital C 38   pz \
	OrthoOrbital C 39   s \
	OrthoOrbital C 39   p \
	OrthoOrbital C 39   px \
	OrthoOrbital C 39   py \
	OrthoOrbital C 39   pz \
	OrthoOrbital C 40   s \
	OrthoOrbital C 40   p \
	OrthoOrbital C 40   px \
	OrthoOrbital C 40   py \
	OrthoOrbital C 40   pz \
	OrthoOrbital C 41   s \
	OrthoOrbital C 41   p \
	OrthoOrbital C 41   px \
	OrthoOrbital C 41   py \
	OrthoOrbital C 41   pz \
	OrthoOrbital C 42   s \
	OrthoOrbital C 42   p \
	OrthoOrbital C 42   px \
	OrthoOrbital C 42   py \
	OrthoOrbital C 42   pz \
	OrthoOrbital C 43   s \
	OrthoOrbital C 43   p \
	OrthoOrbital C 43   px \
	OrthoOrbital C 43   py \
	OrthoOrbital C 43   pz \
	OrthoOrbital C 44   s \
	OrthoOrbital C 44   p \
	OrthoOrbital C 44   px \
	OrthoOrbital C 44   py \
	OrthoOrbital C 44   pz \
	OrthoOrbital C 45   s \
	OrthoOrbital C 45   p \
	OrthoOrbital C 45   px \
	OrthoOrbital C 45   py \
	OrthoOrbital C 45   pz \
	OrthoOrbital N 1   s \
	OrthoOrbital N 1   p \
	OrthoOrbital N 1   px \
	OrthoOrbital N 1   py \
	OrthoOrbital N 1   pz \
	OrthoOrbital N 2   s \
	OrthoOrbital N 2   p \
	OrthoOrbital N 2   px \
	OrthoOrbital N 2   py \
	OrthoOrbital N 2   pz \
	OrthoOrbital N 3   s \
	OrthoOrbital N 3   p \
	OrthoOrbital N 3   px \
	OrthoOrbital N 3   py \
	OrthoOrbital N 3   pz \
	OrthoOrbital N 4   s \
	OrthoOrbital N 4   p \
	OrthoOrbital N 4   px \
	OrthoOrbital N 4   py \
	OrthoOrbital N 4   pz \
	OrthoOrbital Ti 1   s \
	OrthoOrbital Ti 1   p \
	OrthoOrbital Ti 1   px \
	OrthoOrbital Ti 1   py \
	OrthoOrbital Ti 1   pz \
	OrthoOrbital Ti 1   d \
	OrthoOrbital Ti 1   dxy \
	OrthoOrbital Ti 1   dyz \
	OrthoOrbital Ti 1   dz2 \
	OrthoOrbital Ti 1   dxz \
	OrthoOrbital Ti 1   dx2-y2 \
	OrthoOrbital O 1   s \
	OrthoOrbital O 1   p \
	OrthoOrbital O 1   px \
	OrthoOrbital O 1   py \
	OrthoOrbital O 1   pz
dump End ElecDensity KEdensity BandEigs EigStats RhoAtom DOS Kpoints
dump Ionic State IonicPositions Lattice EigStats Ecomponents
dump 
dump 
dump 
dump 
dump 
dump 
dump 
dump 
dump-name jdft.$VAR
elec-cutoff 20
elec-eigen-algo Davidson
elec-ex-corr gga-PBE
elec-initial-magnetization 0.000000 no
elec-n-bands 131
elec-smearing Fermi 0.001
electronic-minimize  \
	dirUpdateScheme      FletcherReeves \
	linminMethod         DirUpdateRecommended \
	nIterations          100 \
	history              15 \
	knormThreshold       0 \
	energyDiffThreshold  1e-07 \
	nEnergyDiff          2 \
	alphaTstart          1 \
	alphaTmin            1e-10 \
	updateTestStepSize   yes \
	alphaTreduceFactor   0.1 \
	alphaTincreaseFactor 3 \
	nAlphaAdjustMax      3 \
	wolfeEnergy          0.0001 \
	wolfeGradient        0.9 \
	fdTest               no
exchange-regularization WignerSeitzTruncated
fluid LinearPCM 298.000000 1.013250
fluid-anion F- 0.5 MeanFieldLJ \
	epsBulk 1 \
	pMol 0 \
	epsInf 1 \
	Pvap 0 \
	sigmaBulk 0 \
	Rvdw 2.24877 \
	Res 0 \
	tauNuc 343133
fluid-cation Na+ 0.5 MeanFieldLJ \
	epsBulk 1 \
	pMol 0 \
	epsInf 1 \
	Pvap 0 \
	sigmaBulk 0 \
	Rvdw 2.19208 \
	Res 0 \
	tauNuc 343133
fluid-ex-corr lda-TF lda-PZ
fluid-gummel-loop 10 1.000000e-05
fluid-minimize  \
	dirUpdateScheme      PolakRibiere \
	linminMethod         DirUpdateRecommended \
	nIterations          400 \
	history              15 \
	knormThreshold       1e-11 \
	energyDiffThreshold  0 \
	nEnergyDiff          2 \
	alphaTstart          1 \
	alphaTmin            1e-10 \
	updateTestStepSize   yes \
	alphaTreduceFactor   0.1 \
	alphaTincreaseFactor 3 \
	nAlphaAdjustMax      6 \
	wolfeEnergy          0.0001 \
	wolfeGradient        0.9 \
	fdTest               no
fluid-solvent H2O 55.338 ScalarEOS \
	epsBulk 78.4 \
	pMol 0.92466 \
	epsInf 1.77 \
	Pvap 1.06736e-10 \
	sigmaBulk 4.62e-05 \
	Rvdw 2.61727 \
	Res 1.42 \
	tauNuc 343133 \
	poleEl 15 7 1
forces-output-coords Positions
ion C  23.421993000000001   0.020152000000000  43.253302000000005 0
ion C  21.030480000000004   3.966452000000000  43.213623000000005 0
ion C  18.690579000000000   7.970428000000002  43.095311000000009 0
ion C  16.382542999999998  11.993451000000002  43.077224000000008 0
ion C  -9.383289000000001  15.985544000000003  43.196378000000010 0
ion C   4.674765000000001   0.121283000000000   0.050915000000000 0
ion C   2.273621000000000   4.119916000000000   0.157823000000000 0
ion C  -0.124446000000000   7.949683000000002   0.097237000000000 0
ion C  -2.437427000000000  11.960091000000002  43.192896000000005 0
ion C  -4.729657000000000  15.991341000000002  43.188657000000006 0
ion C   9.355764000000001   0.024990000000000   0.008982000000000 0
ion C   7.061690000000000   4.155042000000000   0.238866000000000 0
ion C  -0.035848000000000  15.896620000000002   0.010601000000000 0
ion C   2.331619000000000  19.854282000000005  43.250181000000005 0
ion C  11.744866000000002   3.962400000000001  43.240461000000010 0
ion C   9.467492000000000   7.961370000000001   0.168255000000000 0
ion C   4.662504000000000  15.749774000000004   0.170288000000000 0
ion C   6.984296999999996  19.854784000000002   0.000282000000000 0
ion C  16.387743000000000   3.942395000000000  43.144660000000009 0
ion C  14.079186000000000   7.968046000000002  43.085776000000010 0
ion C  11.764574000000000  11.968543000000004  43.203491000000007 0
ion C   9.353853000000004  15.886550000000002   0.062569000000000 0
ion C  -0.026218000000000   2.689395000000001   0.016698000000000 0
ion C  -2.433997000000001   6.621685000000001  43.196020000000004 0
ion C  -4.746966000000000  10.625575000000001  43.094337000000010 0
ion C  -7.055094000000000  14.650356000000002  43.143693000000006 0
ion C  -9.384884000000000  18.676676000000004  43.253564000000004 0
ion C   4.672089000000000   2.843564000000001   0.177770000000000 0
ion C  -0.126271000000000  10.635839000000004   0.094376000000000 0
ion C  -2.412755000000001  14.633355000000002  43.209295000000004 0
ion C  -4.732410000000001  18.683345000000003   0.001576000000000 0
ion C   9.363237000000000   2.713999000000000   0.066160000000000 0
ion C   2.266078000000000  14.470297000000002   0.149849000000000 0
ion C  -0.028899000000001  18.583723000000003  43.249628000000008 0
ion C  14.061790000000002   2.603618000000000  43.196304000000005 0
ion C  11.768128000000003   6.635470000000002  43.205956000000008 0
ion C   9.465876000000002  10.639140000000001   0.165828000000000 0
ion C   7.054350000000001  14.442463000000004   0.232376000000000 0
ion C   4.660315999999998  18.471729000000003   0.046036000000000 0
ion C  18.715380000000000   2.605014000000000  43.190223000000010 0
ion C  16.385494999999999   6.617318000000002  43.078447000000004 0
ion C  14.077693000000004  10.639495000000000  43.084968000000011 0
ion C  11.737586000000000  14.641595000000004  43.238031000000007 0
ion C   9.341700000000001  18.575454000000004   0.008506000000000 0
ion C   4.849431999999998   9.312952000000001   7.628902000000002 1
ion N   2.161795000000001  11.867029000000000   0.322327000000000 0
ion N   7.174232000000000  11.833722000000002   0.469305000000000 0
ion N   2.165525999999999   6.723470000000002   0.329291000000000 0
ion N   7.177679999999999   6.764204000000003   0.474892000000000 0
ion Ti   4.530588000000001   9.303154000000001   1.933139000000000 0
ion O   4.850521999999999   9.317289000000002   9.781865000000002 1
ion-species /projects/musgravc/apps/jdftx-1.6.0/build/pseudopotentials/GBRV_v1.5/$ID_pbe_v1.uspp
ion-species /projects/musgravc/apps/jdftx-1.6.0/build/pseudopotentials/GBRV_v1.5/$ID_pbe_v1.2.uspp
ion-species /projects/musgravc/apps/jdftx-1.6.0/build/pseudopotentials/GBRV_v1.5/$ID_pbe_v1.4.uspp
ion-species /projects/musgravc/apps/jdftx-1.6.0/build/pseudopotentials/GBRV_v1.5/$ID_pbe_v1.5.uspp
ion-width Ecut
ionic-minimize  \
	dirUpdateScheme      L-BFGS \
	linminMethod         DirUpdateRecommended \
	nIterations          0 \
	history              15 \
	knormThreshold       0.0001 \
	energyDiffThreshold  1e-06 \
	nEnergyDiff          2 \
	alphaTstart          1 \
	alphaTmin            1e-10 \
	updateTestStepSize   yes \
	alphaTreduceFactor   0.1 \
	alphaTincreaseFactor 3 \
	nAlphaAdjustMax      3 \
	wolfeEnergy          0.0001 \
	wolfeGradient        0.9 \
	fdTest               no
kpoint   0.000000000000   0.000000000000   0.000000000000  1.00000000000000
kpoint-folding 3 3 1 
latt-move-scale 0 0 0
latt-scale 1 1 1 
lattice  \
	  23.436261999999999  -11.733459000000000    0.000000000000000  \
	   0.017994000000000   19.941849000000001    0.000000000000000  \
	   0.000000000000000    0.000000000000000   43.256312999999999 
lattice-minimize  \
	dirUpdateScheme      L-BFGS \
	linminMethod         DirUpdateRecommended \
	nIterations          0 \
	history              15 \
	knormThreshold       0 \
	energyDiffThreshold  1e-06 \
	nEnergyDiff          2 \
	alphaTstart          1 \
	alphaTmin            1e-10 \
	updateTestStepSize   yes \
	alphaTreduceFactor   0.1 \
	alphaTincreaseFactor 3 \
	nAlphaAdjustMax      3 \
	wolfeEnergy          0.0001 \
	wolfeGradient        0.9 \
	fdTest               no
lcao-params 30 1e-06 0.001
pcm-variant CANDLE
spintype z-spin
subspace-rotation-factor 1 yes
symmetries none
symmetry-threshold 0.0001
target-mu -0.1272 no

van-der-waals D3
vibrations \
	dr 0.01\
	centralDiff no\
	useConstraints yes\
	translationSym yes\
	rotationSym no\
	omegaMin 0.0002\
	T 298\
	omegaResolution 0.0001


Applied RMS atom displacement 0 bohrs to make symmetries exact.
Applied RMS atom displacement 0 bohrs to make symmetries exact.

---------- Initializing the Grid ----------
R = 
[      23.4363     -11.7335            0  ]
[     0.017994      19.9418            0  ]
[            0            0      43.2563  ]
unit cell volume = 20225.5
G =
[   0.267976   0.157673         -0  ]
[ -0.000241801   0.314933          0  ]
[          0         -0   0.145255  ]
Minimum fftbox size, Smin = [  96  96  176  ]
Chosen fftbox size, S = [  96  96  180  ]

---------- Exchange Correlation functional ----------
Initalized PBE GGA exchange.
Initalized PBE GGA correlation.

---------- Setting up pseudopotentials ----------
Width of ionic core gaussian charges (only for fluid interactions / plotting) set to 0.397384

Reading pseudopotential file '/projects/musgravc/apps/jdftx-1.6.0/build/pseudopotentials/GBRV_v1.5/c_pbe_v1.2.uspp':
  Title: C.  Created by USPP 7.3.6 on 3-2-2014
  Reference state energy: -5.406344.  4 valence electrons in orbitals:
    |200>  occupation: 2  eigenvalue: -0.504890
    |210>  occupation: 2  eigenvalue: -0.194356
  lMax: 1  lLocal: 2  QijEcut: 5
  4 projectors sampled on a log grid with 503 points:
    l: 0  eig: -0.504890  rCut: 1.3
    l: 0  eig: 0.000000  rCut: 1.3
    l: 1  eig: -0.194357  rCut: 1.3
    l: 1  eig: 0.000000  rCut: 1.3
  Partial core density with radius 1.1
  Transforming core density to a uniform radial grid of dG=0.02 with 1464 points.
  Transforming local potential to a uniform radial grid of dG=0.02 with 1464 points.
  Transforming nonlocal projectors to a uniform radial grid of dG=0.02 with 432 points.
  Transforming density augmentations to a uniform radial grid of dG=0.02 with 1464 points.
  Transforming atomic orbitals to a uniform radial grid of dG=0.02 with 432 points.
  Core radius for overlap checks: 1.30 bohrs.

Reading pseudopotential file '/projects/musgravc/apps/jdftx-1.6.0/build/pseudopotentials/GBRV_v1.5/n_pbe_v1.2.uspp':
  Title: N.  Created by USPP 7.3.6 on 3-2-2014
  Reference state energy: -9.763716.  5 valence electrons in orbitals:
    |200>  occupation: 2  eigenvalue: -0.681964
    |210>  occupation: 3  eigenvalue: -0.260726
  lMax: 1  lLocal: 2  QijEcut: 6
  4 projectors sampled on a log grid with 491 points:
    l: 0  eig: -0.681964  rCut: 1.15
    l: 0  eig: 0.000000  rCut: 1.15
    l: 1  eig: -0.260729  rCut: 1.2
    l: 1  eig: 0.500000  rCut: 1.2
  Partial core density with radius 0.8
  Transforming core density to a uniform radial grid of dG=0.02 with 1464 points.
  Transforming local potential to a uniform radial grid of dG=0.02 with 1464 points.
  Transforming nonlocal projectors to a uniform radial grid of dG=0.02 with 432 points.
  Transforming density augmentations to a uniform radial grid of dG=0.02 with 1464 points.
  Transforming atomic orbitals to a uniform radial grid of dG=0.02 with 432 points.
  Core radius for overlap checks: 1.20 bohrs.

Reading pseudopotential file '/projects/musgravc/apps/jdftx-1.6.0/build/pseudopotentials/GBRV_v1.5/ti_pbe_v1.4.uspp':
  Title: Ti.  Created by USPP 7.3.6 on 31-3-15
  Reference state energy: -59.020943.  12 valence electrons in orbitals:
    |300>  occupation: 2  eigenvalue: -2.777623
    |310>  occupation: 6  eigenvalue: -1.894596
    |400>  occupation: 2  eigenvalue: -0.438610
    |320>  occupation: 1  eigenvalue: -0.583119
  lMax: 2  lLocal: 3  QijEcut: 6
  6 projectors sampled on a log grid with 597 points:
    l: 0  eig: -2.777624  rCut: 1.8
    l: 0  eig: -0.438611  rCut: 1.8
    l: 1  eig: -1.894596  rCut: 1.8
    l: 1  eig: 0.500000  rCut: 1.8
    l: 2  eig: -0.583118  rCut: 1.8
    l: 2  eig: 0.150000  rCut: 1.8
  Partial core density with radius 0.8
  Transforming core density to a uniform radial grid of dG=0.02 with 1464 points.
  Transforming local potential to a uniform radial grid of dG=0.02 with 1464 points.
  Transforming nonlocal projectors to a uniform radial grid of dG=0.02 with 432 points.
  Transforming density augmentations to a uniform radial grid of dG=0.02 with 1464 points.
  Transforming atomic orbitals to a uniform radial grid of dG=0.02 with 432 points.
  Core radius for overlap checks: 1.80 bohrs.

Reading pseudopotential file '/projects/musgravc/apps/jdftx-1.6.0/build/pseudopotentials/GBRV_v1.5/o_pbe_v1.2.uspp':
  Title: O.  Created by USPP 7.3.6 on 3-2-2014
  Reference state energy: -15.894388.  6 valence electrons in orbitals:
    |200>  occupation: 2  eigenvalue: -0.878823
    |210>  occupation: 4  eigenvalue: -0.332131
  lMax: 2  lLocal: 2  QijEcut: 6
  5 projectors sampled on a log grid with 511 points:
    l: 0  eig: -0.878823  rCut: 1.25
    l: 0  eig: 0.000000  rCut: 1.25
    l: 1  eig: -0.332132  rCut: 1.25
    l: 1  eig: 0.000000  rCut: 1.25
    l: 2  eig: 1.000000  rCut: 1.25
  Partial core density with radius 0.7
  Transforming core density to a uniform radial grid of dG=0.02 with 1464 points.
  Transforming local potential to a uniform radial grid of dG=0.02 with 1464 points.
  Transforming nonlocal projectors to a uniform radial grid of dG=0.02 with 432 points.
  Transforming density augmentations to a uniform radial grid of dG=0.02 with 1464 points.
  Transforming atomic orbitals to a uniform radial grid of dG=0.02 with 432 points.
  Core radius for overlap checks: 1.25 bohrs.

Initialized 4 species with 51 total atoms.

Folded 1 k-points by 3x3x1 to 9 k-points.

---------- Setting up k-points, bands, fillings ----------
No reducable k-points. 
Computing the number of bands and number of electrons
Calculating initial fillings.
nElectrons: 218.000000   nBands: 131   nStates: 18

----- Setting up reduced wavefunction bases (one per k-point) -----
average nbasis = 86412.556 , ideal nbasis = 86404.907

----- Initializing Supercell corresponding to k-point mesh -----
Lattice vector linear combinations in supercell:
[   3   0   0  ]
[   0   3   0  ]
[   0   0   1  ]
Supercell lattice vectors:
[  70.3088  -35.2004  0  ]
[  0.053982  59.8255  0  ]
[  0  0  43.2563  ]

Initializing DFT-D3 calculator:
	Parameters set for gga-PBE functional
	s6:  1.000  s_r6:  1.217
	s8:  0.722  s_r8:  1.000
	Per-atom parameters loaded for:
	 C:  sqrtQ[a0]:  3.105  Rcov[a0]:  1.417  CN: [ 0.00 0.99 2.00 3.00 3.98 ]
	 N:  sqrtQ[a0]:  2.712  Rcov[a0]:  1.342  CN: [ 0.00 0.99 2.01 2.99 ]
	Ti:  sqrtQ[a0]:  6.288  Rcov[a0]:  2.305  CN: [ 0.00 1.83 3.87 ]
	 O:  sqrtQ[a0]:  2.594  Rcov[a0]:  1.191  CN: [ 0.00 0.99 1.99 ]

Initializing DFT-D2 calculator for fluid / solvation:
	 C:  C6:   30.35 Eh-a0^6  R0: 2.744 a0
	 N:  C6:   21.33 Eh-a0^6  R0: 2.640 a0
	Ti:  C6:  187.33 Eh-a0^6  R0: 2.952 a0
	 O:  C6:   12.14 Eh-a0^6  R0: 2.536 a0

---------- Setting up ewald sum ----------
Optimum gaussian width for ewald sums = 5.644362 bohr.
Real space sum over 567 unit cells with max indices [  4  4  3  ]
Reciprocal space sum over 7803 terms with max indices [  8  8  13  ]

Computing DFT-D3 correction:
# coordination-number C 3.298 3.320 3.332 3.329 3.310 3.287 3.323 3.627 3.325 3.310 3.297 3.312 3.300 3.299 3.321 3.510 3.263 3.298 3.318 3.333 3.327 3.298 3.300 3.325 3.332 3.318 3.298 3.263 3.628 3.320 3.298 3.298 3.324 3.299 3.310 3.327 3.511 3.313 3.287 3.310 3.329 3.333 3.320 3.297 1.114
# coordination-number N 3.177 3.166 3.176 3.165
# coordination-number Ti 5.457
# coordination-number O 1.003
# diagonal-C6 C 24.30 24.08 23.96 23.98 24.18 24.41 24.05 19.98 24.03 24.18 24.31 24.16 24.28 24.29 24.08 21.50 24.61 24.31 24.11 23.94 24.01 24.30 24.28 24.03 23.95 24.11 24.30 24.61 19.96 24.08 24.31 24.30 24.04 24.29 24.18 24.01 21.48 24.15 24.40 24.18 23.98 23.95 24.08 24.31 42.60
# diagonal-C6 N 15.60 15.60 15.60 15.60
# diagonal-C6 Ti 321.59
# diagonal-C6 O 12.81
EvdW_6 =   -0.037572
EvdW_8 =   -0.030185

---------- Allocating electronic variables ----------
Initializing wave functions:  linear combination of atomic orbitals
C pseudo-atom occupations:   s ( 2 )  p ( 2 )
N pseudo-atom occupations:   s ( 2 )  p ( 3 )
Ti pseudo-atom occupations:   s ( 2 0 )  p ( 6 )  d ( 4 )
O pseudo-atom occupations:   s ( 2 )  p ( 4 )
	FillingsUpdate:  mu: -0.127200000  nElectrons: 218.000000  magneticMoment: [ Abs: 0.00439  Tot: +0.00001 ]
LCAOMinimize: Iter:   0  G: -338.9180081362576402  |grad|_K:  2.911e-03  alpha:  1.000e+00
	FillingsUpdate:  mu: -0.127200000  nElectrons: 218.000000  magneticMoment: [ Abs: 0.00432  Tot: +0.00000 ]
LCAOMinimize: Iter:   1  G: -339.2287879287507053  |grad|_K:  1.826e-03  alpha:  6.778e-02  linmin: -1.186e-01  cgtest:  1.306e+00  t[s]:    294.16
LCAOMinimize: Encountered beta<0, resetting CG.
LCAOMinimize: 	Predicted alpha/alphaT>3.000000, increasing alphaT to 2.033455e-01.
	FillingsUpdate:  mu: -0.127200000  nElectrons: 218.000000  magneticMoment: [ Abs: 0.00426  Tot: -0.00000 ]
LCAOMinimize: Iter:   2  G: -339.8635768553880894  |grad|_K:  1.473e-03  alpha:  3.527e-01  linmin: -1.048e-01  cgtest:  1.642e-01  t[s]:    441.50
	FillingsUpdate:  mu: -0.127200000  nElectrons: 218.000000  magneticMoment: [ Abs: 0.00426  Tot: -0.00000 ]
LCAOMinimize: Iter:   3  G: -339.8875127005902073  |grad|_K:  1.484e-03  alpha:  8.168e-03  linmin: -1.462e-01  cgtest:  9.650e-01  t[s]:    559.35
LCAOMinimize: 	Wrong curvature in test step, increasing alphaT to 2.450267e-02.
	FillingsUpdate:  mu: -0.127200000  nElectrons: 218.000000  magneticMoment: [ Abs: 0.00426  Tot: -0.00000 ]
LCAOMinimize: Iter:   4  G: -339.9031498917864269  |grad|_K:  1.481e-03  alpha: -3.635e-01  linmin: -1.799e-01  cgtest:  9.788e-01  t[s]:    673.95
	FillingsUpdate:  mu: -0.127200000  nElectrons: 218.000000  magneticMoment: [ Abs: 0.00426  Tot: -0.00002 ]
LCAOMinimize: Iter:   5  G: -339.9730350501685621  |grad|_K:  1.527e-03  alpha:  3.621e-02  linmin: -1.422e-01  cgtest:  8.695e-01  t[s]:    791.67
LCAOMinimize: 	Wrong curvature in test step, increasing alphaT to 1.086230e-01.
	FillingsUpdate:  mu: -0.127200000  nElectrons: 218.000000  magneticMoment: [ Abs: 0.00430  Tot: -0.00016 ]
LCAOMinimize: Iter:   6  G: -340.0605752253520109  |grad|_K:  1.420e-03  alpha: -2.062e-01  linmin: -1.893e-01  cgtest:  8.537e-01  t[s]:    905.81
	FillingsUpdate:  mu: -0.127200000  nElectrons: 218.000000  magneticMoment: [ Abs: 0.00436  Tot: -0.00023 ]
LCAOMinimize: Iter:   7  G: -340.1417242075510785  |grad|_K:  1.433e-03  alpha:  4.477e-02  linmin: -1.301e-01  cgtest:  7.702e-01  t[s]:   1022.76
LCAOMinimize: 	Wrong curvature in test step, increasing alphaT to 1.343015e-01.
	FillingsUpdate:  mu: -0.127200000  nElectrons: 218.000000  magneticMoment: [ Abs: 0.00434  Tot: -0.00022 ]
LCAOMinimize: Iter:   8  G: -340.2431008504133274  |grad|_K:  1.353e-03  alpha: -2.694e-01  linmin: -2.064e-01  cgtest:  7.776e-01  t[s]:   1137.73
	FillingsUpdate:  mu: -0.127200000  nElectrons: 218.000000  magneticMoment: [ Abs: 0.00434  Tot: -0.00014 ]
LCAOMinimize: Iter:   9  G: -340.3388799856184619  |grad|_K:  1.224e-03  alpha:  4.670e-02  linmin: -2.032e-01  cgtest:  7.362e-01  t[s]:   1254.65
LCAOMinimize: 	Wrong curvature in test step, increasing alphaT to 1.401094e-01.
	FillingsUpdate:  mu: -0.127200000  nElectrons: 218.000000  magneticMoment: [ Abs: 0.00442  Tot: +0.00002 ]
LCAOMinimize: Iter:  10  G: -340.4145750071189127  |grad|_K:  4.391e-04  alpha: -5.041e-01  linmin: -2.373e-01  cgtest:  5.253e-01  t[s]:   1368.60
LCAOMinimize: Encountered beta<0, resetting CG.
	FillingsUpdate:  mu: -0.127200000  nElectrons: 218.000000  magneticMoment: [ Abs: 0.00447  Tot: +0.00010 ]
LCAOMinimize: Iter:  11  G: -340.4210194255747979  |grad|_K:  4.731e-04  alpha:  7.993e-02  linmin:  2.220e-03  cgtest:  6.507e-02  t[s]:   1485.56
	FillingsUpdate:  mu: -0.127200000  nElectrons: 218.000000  magneticMoment: [ Abs: 0.00462  Tot: +0.00018 ]
LCAOMinimize: Iter:  12  G: -340.4292529492931294  |grad|_K:  1.510e-04  alpha:  1.019e-01  linmin:  3.637e-02  cgtest: -7.768e-01  t[s]:   1602.20
	FillingsUpdate:  mu: -0.127200000  nElectrons: 218.000000  magneticMoment: [ Abs: 0.00466  Tot: +0.00022 ]
LCAOMinimize: Iter:  13  G: -340.4292586416719359  |grad|_K:  1.327e-04  alpha:  1.813e-02  linmin: -6.380e-03  cgtest:  9.691e-01  t[s]:   1718.79
LCAOMinimize: Encountered beta<0, resetting CG.
LCAOMinimize: 	Predicted alpha/alphaT>3.000000, increasing alphaT to 5.437543e-02.
	FillingsUpdate:  mu: -0.127200000  nElectrons: 218.000000  magneticMoment: [ Abs: 0.00479  Tot: +0.00034 ]
LCAOMinimize: Iter:  14  G: -340.4296875132795890  |grad|_K:  1.202e-04  alpha:  6.081e-02  linmin: -1.291e-02  cgtest:  1.722e-01  t[s]:   1865.50
	FillingsUpdate:  mu: -0.127200000  nElectrons: 218.000000  magneticMoment: [ Abs: 0.00508  Tot: +0.00054 ]
LCAOMinimize: Iter:  15  G: -340.4303081343769577  |grad|_K:  5.244e-05  alpha:  8.942e-02  linmin: -7.710e-02  cgtest:  1.780e-01  t[s]:   1982.18
	FillingsUpdate:  mu: -0.127200000  nElectrons: 218.000000  magneticMoment: [ Abs: 0.00534  Tot: +0.00075 ]
LCAOMinimize: Iter:  16  G: -340.4303749241950072  |grad|_K:  4.606e-05  alpha:  6.523e-02  linmin: -8.551e-02  cgtest:  6.068e-01  t[s]:   2098.61
	FillingsUpdate:  mu: -0.127200000  nElectrons: 218.000000  magneticMoment: [ Abs: 0.00593  Tot: +0.00120 ]
LCAOMinimize: Iter:  17  G: -340.4305176837033287  |grad|_K:  5.448e-05  alpha:  1.163e-01  linmin: -2.518e-02  cgtest:  1.880e-01  t[s]:   2215.65
	FillingsUpdate:  mu: -0.127200000  nElectrons: 218.000000  magneticMoment: [ Abs: 0.00691  Tot: +0.00195 ]
LCAOMinimize: Iter:  18  G: -340.4305923504046518  |grad|_K:  3.017e-05  alpha:  6.593e-02  linmin: -7.234e-02  cgtest:  1.181e-01  t[s]:   2332.22
	FillingsUpdate:  mu: -0.127200000  nElectrons: 218.000000  magneticMoment: [ Abs: 0.00811  Tot: +0.00284 ]
LCAOMinimize: Iter:  19  G: -340.4306449626553217  |grad|_K:  2.388e-05  alpha:  8.321e-02  linmin: -8.028e-02  cgtest:  5.021e-01  t[s]:   2449.23
	FillingsUpdate:  mu: -0.127200000  nElectrons: 218.000000  magneticMoment: [ Abs: 0.00903  Tot: +0.00353 ]
LCAOMinimize: Iter:  20  G: -340.4306496500816479  |grad|_K:  1.934e-05  alpha:  4.398e-02  linmin: -1.924e-01  cgtest:  7.713e-01  t[s]:   2566.00
	FillingsUpdate:  mu: -0.127200000  nElectrons: 218.000000  magneticMoment: [ Abs: 0.01021  Tot: +0.00439 ]
LCAOMinimize: Iter:  21  G: -340.4306601305407298  |grad|_K:  1.791e-05  alpha:  5.613e-02  linmin: -1.865e-01  cgtest:  9.423e-01  t[s]:   2682.43
LCAOMinimize: Encountered beta<0, resetting CG.
	FillingsUpdate:  mu: -0.127200000  nElectrons: 218.000000  magneticMoment: [ Abs: 0.01114  Tot: +0.00507 ]
LCAOMinimize: Iter:  22  G: -340.4306621978458338  |grad|_K:  1.700e-05  alpha:  3.538e-02  linmin: -2.203e-01  cgtest:  9.785e-01  t[s]:   2799.37
LCAOMinimize: Encountered beta<0, resetting CG.
	FillingsUpdate:  mu: -0.127200000  nElectrons: 218.000000  magneticMoment: [ Abs: 0.01209  Tot: +0.00575 ]
LCAOMinimize: Iter:  23  G: -340.4306654788606465  |grad|_K:  1.640e-05  alpha:  3.179e-02  linmin: -2.022e-01  cgtest:  9.980e-01  t[s]:   2916.03
LCAOMinimize: Encountered beta<0, resetting CG.
	FillingsUpdate:  mu: -0.127200000  nElectrons: 218.000000  magneticMoment: [ Abs: 0.01295  Tot: +0.00636 ]
LCAOMinimize: Iter:  24  G: -340.4306674517937950  |grad|_K:  1.599e-05  alpha:  2.496e-02  linmin: -1.900e-01  cgtest:  9.995e-01  t[s]:   3032.80
LCAOMinimize: Encountered beta<0, resetting CG.
	FillingsUpdate:  mu: -0.127200000  nElectrons: 218.000000  magneticMoment: [ Abs: 0.01369  Tot: +0.00689 ]
LCAOMinimize: Iter:  25  G: -340.4306689025284527  |grad|_K:  1.569e-05  alpha:  1.951e-02  linmin: -1.788e-01  cgtest:  9.996e-01  t[s]:   3149.66
LCAOMinimize: Encountered beta<0, resetting CG.
	FillingsUpdate:  mu: -0.127200000  nElectrons: 218.000000  magneticMoment: [ Abs: 0.01432  Tot: +0.00733 ]
LCAOMinimize: Iter:  26  G: -340.4306699652148609  |grad|_K:  1.547e-05  alpha:  1.511e-02  linmin: -1.704e-01  cgtest:  9.997e-01  t[s]:   3266.43
LCAOMinimize: Encountered beta<0, resetting CG.
	FillingsUpdate:  mu: -0.127200000  nElectrons: 218.000000  magneticMoment: [ Abs: 0.01483  Tot: +0.00770 ]
LCAOMinimize: Iter:  27  G: -340.4306707517811219  |grad|_K:  1.532e-05  alpha:  1.164e-02  linmin: -1.641e-01  cgtest:  9.998e-01  t[s]:   3384.17
LCAOMinimize: Encountered beta<0, resetting CG.
	FillingsUpdate:  mu: -0.127200000  nElectrons: 218.000000  magneticMoment: [ Abs: 0.01524  Tot: +0.00799 ]
LCAOMinimize: Iter:  28  G: -340.4306713389174206  |grad|_K:  1.521e-05  alpha:  8.930e-03  linmin: -1.594e-01  cgtest:  9.999e-01  t[s]:   3501.07
LCAOMinimize: Encountered beta<0, resetting CG.
LCAOMinimize: Converged (|Delta G|<1.000000e-06 for 2 iters).
----- createFluidSolver() ----- (Fluid-side solver setup)
   Initializing fluid molecule 'H2O'
     Initializing site 'O'
       Electron density: proportional to exp(-r/0.36935)*erfc((r-0.51523)/0.36823) with norm 6.826
       Charge density: gaussian nuclear width 0.478731 with net site charge 0.826
       Polarizability: cuspless exponential with width 0.32 and norm 3.73
       Hard sphere radius: 2.57003 bohrs
       Positions in reference frame:
         [ +0.000000 +0.000000 +0.000000 ]
     Initializing site 'H'
       Electron density: proportional to exp(-r/0.34641)*erfc((r-0)/0.390882) with norm 0.587
       Charge density: gaussian nuclear width 0.377945 with net site charge -0.413
       Polarizability: cuspless exponential with width 0.39 and norm 3.3
       Positions in reference frame:
         [ +0.000000 -1.441945 +1.122523 ]
         [ +0.000000 +1.441945 +1.122523 ]
     Net charge: 0   dipole magnitude: 0.927204
     Initializing spherical shell mfKernel with radius 2.61727 Bohr
     deltaS corrections:
       site 'O': -7.54299
       site 'H': -6.83917
   Initializing fluid molecule 'Na+'
     Initializing site 'Na'
       Electron density: proportional to exp(-r/0.19682)*erfc((r-0.71491)/0.41314) with norm 8.1383
       Charge density: gaussian nuclear width 0.365347 with net site charge -1
       Hard sphere radius: 1.86327 bohrs
       Positions in reference frame:
         [ +0.000000 +0.000000 +0.000000 ]
     Net charge: -1   dipole magnitude: 0
     Initializing gaussian mfKernel with width: 1.55004 Bohr
     deltaS corrections:
       site 'Na': -22.3555
   Initializing fluid molecule 'F-'
     Initializing site 'F'
       Electron density: proportional to exp(-r/0.38886)*erfc((r-0)/0.438782) with norm 8
       Charge density: gaussian nuclear width 0.374796 with net site charge 1
       Hard sphere radius: 2.39995 bohrs
       Positions in reference frame:
         [ +0.000000 +0.000000 +0.000000 ]
     Net charge: 1   dipole magnitude: 0
     Initializing gaussian mfKernel with width: 1.59012 Bohr
     deltaS corrections:
       site 'F': -9.04335

Correction to mu due to finite nuclear width = -0.0106944
   Cavity determined by nc: 0.00142 and sigma: 0.707107
   Nonlocal vdW cavity from gaussian model electron density with norm = 8 and sigma = 0.993594 bohr
   Charge asymmetry in cavity with sensitivity pCavity = 36.5 e-bohr/Eh
   Electrostatic cavity expanded by eta = 1.46 bohrs
   Weighted density cavitation model constrained by Nbulk: 0.0049383 bohr^-3, Pvap: 3.14029 kPa, Rvdw: 2.61727 bohr and sigmaBulk: 4.62e-05 Eh/bohr^2 at T: 298 K.
   Weighted density dispersion model using vdW pair potentials with single solvent site with sqrtC6eff: 0.77 SI.
WARNING: Vibrations: switching off translationSym and rotationSym since useConstraints is on.

---- Citations for features of the code used in this run ----

   Software package:
      R. Sundararaman, K. Letchworth-Weaver, K.A. Schwarz, D. Gunceler, Y. Ozhabes and T.A. Arias, 'JDFTx: software for joint density-functional theory', SoftwareX 6, 278 (2017)

   gga-PBE exchange-correlation functional:
      J.P. Perdew, K. Burke and M. Ernzerhof, Phys. Rev. Lett. 77, 3865 (1996)

   Pseudopotentials:
      KF Garrity, JW Bennett, KM Rabe and D Vanderbilt, Comput. Mater. Sci. 81, 446 (2014)

   DFT-D3 dispersion correction:
      S. Grimme, J. Antony, S. Ehrlich and H. Krieg, J. Chem. Phys. 132, 154104 (2010)

   DFT-D2 dispersion correction:
      S. Grimme, J. Comput. Chem. 27, 1787 (2006)

   Charge-asymmetric nonlocally-determined local-electric (CANDLE) solvation model:
      R. Sundararaman and W.A. Goddard III, J. Chem. Phys. 142, 064107 (2015)

   Total energy minimization with Auxiliary Hamiltonian:
      C. Freysoldt, S. Boeck, and J. Neugebauer, Phys. Rev. B 79, 241103(R) (2009)

   Grand-canonical (fixed-potential) DFT:
      R. Sundararaman, W. A. Goddard III and T. A. Arias, J. Chem. Phys. 146, 114104 (2017)

   Linear-tetrahedron sampling for density of states:
      G. Lehmann and M. Taut, Phys. status solidi (b) 54, 469 (1972)

This list may not be complete. Please suggest additional citations or
report any other bugs at https://github.com/shankar1729/jdftx/issues

Initialization completed successfully at t[s]:   3516.33

------ Vibrations::calculate() -------
WARNING: Vibrations module is experimental. Please report bugs!
Compare results with and without symmetries and report discrepancies.
Degrees of freedom: 6 total, 6 symmetry-independent.

Computing DFT-D3 correction:
# coordination-number C 3.298 3.320 3.332 3.329 3.310 3.287 3.323 3.627 3.325 3.310 3.297 3.312 3.300 3.299 3.321 3.510 3.263 3.298 3.318 3.333 3.327 3.298 3.300 3.325 3.332 3.318 3.298 3.263 3.628 3.320 3.298 3.298 3.324 3.299 3.310 3.327 3.511 3.313 3.287 3.310 3.329 3.333 3.320 3.297 1.114
# coordination-number N 3.177 3.166 3.176 3.165
# coordination-number Ti 5.457
# coordination-number O 1.003
# diagonal-C6 C 24.30 24.08 23.96 23.98 24.18 24.41 24.05 19.98 24.03 24.18 24.31 24.16 24.28 24.29 24.08 21.50 24.61 24.31 24.11 23.94 24.01 24.30 24.28 24.03 23.95 24.11 24.30 24.61 19.96 24.08 24.31 24.30 24.04 24.29 24.18 24.01 21.48 24.15 24.40 24.18 23.98 23.95 24.08 24.31 42.60
# diagonal-C6 N 15.60 15.60 15.60 15.60
# diagonal-C6 Ti 321.59
# diagonal-C6 O 12.81
EvdW_6 =   -0.037572
EvdW_8 =   -0.030185
Fluid solver invoked on fresh (random / LCAO) wavefunctions
Running a vacuum solve first:

-------- Initial electronic minimization -----------
	FillingsUpdate:  mu: -0.178379488  nElectrons: 218.000000  magneticMoment: [ Abs: 0.01524  Tot: +0.00799 ]
ElecMinimize: Iter:   0  G: -340.429135316291365  |grad|_K:  1.438e-04  alpha:  1.000e+00
	FillingsUpdate:  mu: -0.144630790  nElectrons: 218.000000  magneticMoment: [ Abs: 0.04812  Tot: +0.03166 ]
	SubspaceRotationAdjust: set factor to 0.719
ElecMinimize: Iter:   1  G: -343.277927738073458  |grad|_K:  7.441e-05  alpha:  6.847e-01  linmin:  1.247e-03  t[s]:   3702.17
ElecMinimize: 	Step increased G by 1.249916e-01, reducing alpha to 1.039493e-02.
	FillingsUpdate:  mu: -0.112718573  nElectrons: 218.000000  magneticMoment: [ Abs: 0.06215  Tot: +0.04545 ]
	SubspaceRotationAdjust: set factor to 0.799
ElecMinimize: Iter:   2  G: -343.298974653511095  |grad|_K:  5.310e-05  alpha:  1.039e-02  linmin: -4.117e-03  t[s]:   3890.05
ElecMinimize: 	Predicted alpha/alphaT>3.000000, increasing alphaT to 3.118478e-02.
	FillingsUpdate:  mu: -0.048048133  nElectrons: 218.000000  magneticMoment: [ Abs: 0.10549  Tot: +0.09332 ]
	SubspaceRotationAdjust: set factor to 0.515
ElecMinimize: Iter:   3  G: -343.327809866994357  |grad|_K:  4.846e-05  alpha:  2.707e-02  linmin:  3.418e-04  t[s]:   4031.28
	FillingsUpdate:  mu: -0.048355097  nElectrons: 218.000000  magneticMoment: [ Abs: 0.15394  Tot: +0.14074 ]
	SubspaceRotationAdjust: set factor to 0.331
ElecMinimize: Iter:   4  G: -343.340395170691181  |grad|_K:  7.147e-05  alpha:  3.072e-02  linmin:  4.717e-05  t[s]:   4143.94
	FillingsUpdate:  mu: -0.050696517  nElectrons: 218.000000  magneticMoment: [ Abs: 0.31145  Tot: +0.28627 ]
	SubspaceRotationAdjust: set factor to 0.187
ElecMinimize: Iter:   5  G: -343.395089386200993  |grad|_K:  8.611e-05  alpha:  5.157e-02  linmin: -1.964e-04  t[s]:   4256.93
	FillingsUpdate:  mu: -0.051722512  nElectrons: 218.000000  magneticMoment: [ Abs: 0.51127  Tot: +0.44381 ]
	SubspaceRotationAdjust: set factor to 0.13
	SubspaceRotationAdjust: resetting CG because factor has changed by 0.130481
ElecMinimize: 	State modified externally: resetting search direction.
ElecMinimize: Iter:   6  G: -343.481693228591098  |grad|_K:  4.715e-05  alpha:  5.161e-02
ElecMinimize: 	Predicted alpha/alphaT>3.000000, increasing alphaT to 1.548364e-01.
	FillingsUpdate:  mu: -0.071499343  nElectrons: 218.000000  magneticMoment: [ Abs: 0.41372  Tot: +0.32517 ]
	SubspaceRotationAdjust: set factor to 0.0545
ElecMinimize: Iter:   7  G: -343.556922772196629  |grad|_K:  1.437e-05  alpha:  1.652e-01  linmin: -3.032e-03  t[s]:   4576.39
ElecMinimize: 	Predicted alpha/alphaT>3.000000, increasing alphaT to 4.955323e-01.
	FillingsUpdate:  mu: -0.063953483  nElectrons: 218.000000  magneticMoment: [ Abs: 0.51272  Tot: +0.40263 ]
	SubspaceRotationAdjust: set factor to 0.0639
ElecMinimize: Iter:   8  G: -343.583301042629898  |grad|_K:  8.664e-06  alpha:  6.002e-01  linmin:  5.204e-05  t[s]:   4718.12
	FillingsUpdate:  mu: -0.055248074  nElectrons: 218.000000  magneticMoment: [ Abs: 0.64073  Tot: +0.51067 ]
	SubspaceRotationAdjust: set factor to 0.061
ElecMinimize: Iter:   9  G: -343.595834047409483  |grad|_K:  8.522e-06  alpha:  8.217e-01  linmin:  3.848e-05  t[s]:   4831.45
	FillingsUpdate:  mu: -0.062405194  nElectrons: 218.000000  magneticMoment: [ Abs: 0.67702  Tot: +0.53107 ]
	SubspaceRotationAdjust: set factor to 0.0664
ElecMinimize: Iter:  10  G: -343.602321584030506  |grad|_K:  3.515e-06  alpha:  4.463e-01  linmin:  9.998e-05  t[s]:   4943.93
	FillingsUpdate:  mu: -0.063428243  nElectrons: 218.000000  magneticMoment: [ Abs: 0.72368  Tot: +0.56990 ]
	SubspaceRotationAdjust: set factor to 0.0801
ElecMinimize: Iter:  11  G: -343.604330071677339  |grad|_K:  2.982e-06  alpha:  8.002e-01  linmin: -1.795e-05  t[s]:   5056.68
	FillingsUpdate:  mu: -0.060210993  nElectrons: 218.000000  magneticMoment: [ Abs: 0.78861  Tot: +0.62507 ]
	SubspaceRotationAdjust: set factor to 0.0936
ElecMinimize: Iter:  12  G: -343.605498330962064  |grad|_K:  2.713e-06  alpha:  6.460e-01  linmin: -1.344e-05  t[s]:   5170.01
	FillingsUpdate:  mu: -0.061380008  nElectrons: 218.000000  magneticMoment: [ Abs: 0.86914  Tot: +0.68335 ]
	SubspaceRotationAdjust: set factor to 0.109
ElecMinimize: Iter:  13  G: -343.606812881810242  |grad|_K:  2.640e-06  alpha:  8.717e-01  linmin: -1.282e-06  t[s]:   5283.40
	FillingsUpdate:  mu: -0.061488732  nElectrons: 218.000000  magneticMoment: [ Abs: 0.93723  Tot: +0.72820 ]
	SubspaceRotationAdjust: set factor to 0.129
ElecMinimize: Iter:  14  G: -343.607775517458606  |grad|_K:  2.195e-06  alpha:  6.816e-01  linmin: -9.383e-06  t[s]:   5396.45
	FillingsUpdate:  mu: -0.062882400  nElectrons: 218.000000  magneticMoment: [ Abs: 0.99587  Tot: +0.76579 ]
	SubspaceRotationAdjust: set factor to 0.15
ElecMinimize: Iter:  15  G: -343.608513310183298  |grad|_K:  1.980e-06  alpha:  7.468e-01  linmin: -8.043e-06  t[s]:   5509.37
	FillingsUpdate:  mu: -0.064309148  nElectrons: 218.000000  magneticMoment: [ Abs: 1.06504  Tot: +0.81822 ]
	SubspaceRotationAdjust: set factor to 0.169
ElecMinimize: Iter:  16  G: -343.609150697092957  |grad|_K:  1.877e-06  alpha:  7.932e-01  linmin: -1.301e-05  t[s]:   5622.78
	FillingsUpdate:  mu: -0.061266391  nElectrons: 218.000000  magneticMoment: [ Abs: 1.13346  Tot: +0.88891 ]
	SubspaceRotationAdjust: set factor to 0.161
ElecMinimize: Iter:  17  G: -343.609533583777534  |grad|_K:  1.400e-06  alpha:  5.355e-01  linmin: -3.423e-06  t[s]:   5735.10
	FillingsUpdate:  mu: -0.061774611  nElectrons: 218.000000  magneticMoment: [ Abs: 1.20188  Tot: +0.95973 ]
	SubspaceRotationAdjust: set factor to 0.192
ElecMinimize: Iter:  18  G: -343.609852228017758  |grad|_K:  1.142e-06  alpha:  7.928e-01  linmin: -1.841e-05  t[s]:   5848.56
	FillingsUpdate:  mu: -0.063103978  nElectrons: 218.000000  magneticMoment: [ Abs: 1.27667  Tot: +1.04067 ]
	SubspaceRotationAdjust: set factor to 0.211
ElecMinimize: Iter:  19  G: -343.610099417164861  |grad|_K:  1.184e-06  alpha:  9.184e-01  linmin: -2.292e-05  t[s]:   5960.89
	FillingsUpdate:  mu: -0.061284480  nElectrons: 218.000000  magneticMoment: [ Abs: 1.35703  Tot: +1.13370 ]
	SubspaceRotationAdjust: set factor to 0.205
ElecMinimize: Iter:  20  G: -343.610269933427617  |grad|_K:  1.108e-06  alpha:  5.750e-01  linmin: -4.912e-06  t[s]:   6073.98
	FillingsUpdate:  mu: -0.062271207  nElectrons: 218.000000  magneticMoment: [ Abs: 1.43794  Tot: +1.21526 ]
	SubspaceRotationAdjust: set factor to 0.26
ElecMinimize: Iter:  21  G: -343.610432307043936  |grad|_K:  9.339e-07  alpha:  6.467e-01  linmin: -2.304e-05  t[s]:   6186.98
	FillingsUpdate:  mu: -0.063260634  nElectrons: 218.000000  magneticMoment: [ Abs: 1.50948  Tot: +1.28181 ]
	SubspaceRotationAdjust: set factor to 0.303
ElecMinimize: Iter:  22  G: -343.610563267657369  |grad|_K:  9.169e-07  alpha:  7.318e-01  linmin: -8.595e-06  t[s]:   6299.76
	FillingsUpdate:  mu: -0.062069646  nElectrons: 218.000000  magneticMoment: [ Abs: 1.56829  Tot: +1.33650 ]
	SubspaceRotationAdjust: set factor to 0.311
ElecMinimize: Iter:  23  G: -343.610647015828761  |grad|_K:  8.758e-07  alpha:  4.920e-01  linmin:  4.931e-06  t[s]:   6412.27
	FillingsUpdate:  mu: -0.063336424  nElectrons: 218.000000  magneticMoment: [ Abs: 1.60336  Tot: +1.36441 ]
	SubspaceRotationAdjust: set factor to 0.311
ElecMinimize: Iter:  24  G: -343.610721443348098  |grad|_K:  6.949e-07  alpha:  4.767e-01  linmin:  6.842e-06  t[s]:   6526.20
	FillingsUpdate:  mu: -0.062855971  nElectrons: 218.000000  magneticMoment: [ Abs: 1.63286  Tot: +1.39122 ]
	SubspaceRotationAdjust: set factor to 0.364
ElecMinimize: Iter:  25  G: -343.610773300884546  |grad|_K:  5.077e-07  alpha:  5.276e-01  linmin: -2.222e-05  t[s]:   6639.18
	FillingsUpdate:  mu: -0.062872551  nElectrons: 218.000000  magneticMoment: [ Abs: 1.64891  Tot: +1.40807 ]
	SubspaceRotationAdjust: set factor to 0.413
ElecMinimize: Iter:  26  G: -343.610814578587167  |grad|_K:  4.109e-07  alpha:  7.733e-01  linmin: -9.774e-06  t[s]:   6752.47
	FillingsUpdate:  mu: -0.063431120  nElectrons: 218.000000  magneticMoment: [ Abs: 1.65147  Tot: +1.41372 ]
	SubspaceRotationAdjust: set factor to 0.415
ElecMinimize: Iter:  27  G: -343.610835872401594  |grad|_K:  3.993e-07  alpha:  6.129e-01  linmin:  6.690e-06  t[s]:   6865.86
	FillingsUpdate:  mu: -0.062723039  nElectrons: 218.000000  magneticMoment: [ Abs: 1.65602  Tot: +1.42111 ]
	SubspaceRotationAdjust: set factor to 0.315
ElecMinimize: Iter:  28  G: -343.610845031106351  |grad|_K:  3.363e-07  alpha:  2.842e-01  linmin:  8.917e-06  t[s]:   6979.03
	FillingsUpdate:  mu: -0.063116381  nElectrons: 218.000000  magneticMoment: [ Abs: 1.65213  Tot: +1.42128 ]
	SubspaceRotationAdjust: set factor to 0.326
ElecMinimize: Iter:  29  G: -343.610854456489847  |grad|_K:  2.354e-07  alpha:  4.103e-01  linmin:  1.390e-05  t[s]:   7091.89
	FillingsUpdate:  mu: -0.063055125  nElectrons: 218.000000  magneticMoment: [ Abs: 1.64821  Tot: +1.42218 ]
	SubspaceRotationAdjust: set factor to 0.397
ElecMinimize: Iter:  30  G: -343.610862159355577  |grad|_K:  1.877e-07  alpha:  6.839e-01  linmin: -8.488e-07  t[s]:   7204.86
	FillingsUpdate:  mu: -0.062931805  nElectrons: 218.000000  magneticMoment: [ Abs: 1.64474  Tot: +1.42252 ]
	SubspaceRotationAdjust: set factor to 0.459
ElecMinimize: Iter:  31  G: -343.610866839800394  |grad|_K:  1.659e-07  alpha:  6.511e-01  linmin: -6.046e-07  t[s]:   7318.28
	FillingsUpdate:  mu: -0.063263277  nElectrons: 218.000000  magneticMoment: [ Abs: 1.64014  Tot: +1.41995 ]
	SubspaceRotationAdjust: set factor to 0.365
ElecMinimize: Iter:  32  G: -343.610869054451882  |grad|_K:  1.822e-07  alpha:  3.940e-01  linmin: -8.797e-07  t[s]:   7432.01
	FillingsUpdate:  mu: -0.062991434  nElectrons: 218.000000  magneticMoment: [ Abs: 1.63835  Tot: +1.42022 ]
	SubspaceRotationAdjust: set factor to 0.325
ElecMinimize: Iter:  33  G: -343.610870996500580  |grad|_K:  1.129e-07  alpha:  2.872e-01  linmin: -9.306e-07  t[s]:   7545.17
	FillingsUpdate:  mu: -0.063029561  nElectrons: 218.000000  magneticMoment: [ Abs: 1.63436  Tot: +1.41795 ]
	SubspaceRotationAdjust: set factor to 0.387
ElecMinimize: Iter:  34  G: -343.610872635743590  |grad|_K:  8.792e-08  alpha:  6.306e-01  linmin:  1.893e-06  t[s]:   7658.04
	FillingsUpdate:  mu: -0.063040528  nElectrons: 218.000000  magneticMoment: [ Abs: 1.63172  Tot: +1.41627 ]
	SubspaceRotationAdjust: set factor to 0.449
ElecMinimize: Iter:  35  G: -343.610873654378054  |grad|_K:  7.024e-08  alpha:  6.469e-01  linmin:  2.442e-07  t[s]:   7771.10
	FillingsUpdate:  mu: -0.062950856  nElectrons: 218.000000  magneticMoment: [ Abs: 1.63101  Tot: +1.41589 ]
	SubspaceRotationAdjust: set factor to 0.451
ElecMinimize: Iter:  36  G: -343.610874239172517  |grad|_K:  7.097e-08  alpha:  5.815e-01  linmin: -2.312e-07  t[s]:   7884.56
	FillingsUpdate:  mu: -0.063077429  nElectrons: 218.000000  magneticMoment: [ Abs: 1.62986  Tot: +1.41470 ]
	SubspaceRotationAdjust: set factor to 0.353
ElecMinimize: Iter:  37  G: -343.610874509560517  |grad|_K:  6.080e-08  alpha:  2.631e-01  linmin: -4.184e-07  t[s]:   7997.85
	FillingsUpdate:  mu: -0.063007732  nElectrons: 218.000000  magneticMoment: [ Abs: 1.62981  Tot: +1.41446 ]
	SubspaceRotationAdjust: set factor to 0.364
ElecMinimize: Iter:  38  G: -343.610874833830962  |grad|_K:  4.103e-08  alpha:  4.299e-01  linmin: -1.256e-06  t[s]:   8111.14
	FillingsUpdate:  mu: -0.063010168  nElectrons: 218.000000  magneticMoment: [ Abs: 1.62967  Tot: +1.41391 ]
	SubspaceRotationAdjust: set factor to 0.417
ElecMinimize: Iter:  39  G: -343.610875069892586  |grad|_K:  3.196e-08  alpha:  6.872e-01  linmin: -1.544e-07  t[s]:   8224.58
	FillingsUpdate:  mu: -0.063027441  nElectrons: 218.000000  magneticMoment: [ Abs: 1.62975  Tot: +1.41361 ]
	SubspaceRotationAdjust: set factor to 0.474
ElecMinimize: Iter:  40  G: -343.610875192784988  |grad|_K:  2.675e-08  alpha:  5.900e-01  linmin:  1.244e-07  t[s]:   8337.18
	FillingsUpdate:  mu: -0.062975929  nElectrons: 218.000000  magneticMoment: [ Abs: 1.63022  Tot: +1.41385 ]
	SubspaceRotationAdjust: set factor to 0.383
ElecMinimize: Iter:  41  G: -343.610875254075040  |grad|_K:  3.028e-08  alpha:  4.198e-01  linmin:  1.818e-07  t[s]:   8449.41
	FillingsUpdate:  mu: -0.063020917  nElectrons: 218.000000  magneticMoment: [ Abs: 1.63016  Tot: +1.41353 ]
	SubspaceRotationAdjust: set factor to 0.33
ElecMinimize: Iter:  42  G: -343.610875304029832  |grad|_K:  1.954e-08  alpha:  2.674e-01  linmin:  6.046e-08  t[s]:   8562.20
ElecMinimize: Converged (|Delta G|<1.000000e-07 for 2 iters).
Setting wave functions to eigenvectors of Hamiltonian
Converging empty states (this may take a while): |deigs|: 5.578e-03
Vacuum energy after initial minimize, F = -343.610875304029832

Shifting auxilliary hamiltonian by -0.064179 to set nElectrons=218.000000

-------- Electronic minimization -----------
	Linear fluid (dielectric constant: 78.4, screening length: 8.12261 Bohr) occupying 0.717557 of unit cell:	Completed after 23 iterations at t[s]:   9079.57
	FillingsUpdate:  mu: -0.127200000  nElectrons: 218.000000  magneticMoment: [ Abs: 1.63140  Tot: +1.41470 ]
ElecMinimize: Iter:   0  G: -343.604749872550826  |grad|_K:  5.817e-06  alpha:  1.000e+00
	Linear fluid (dielectric constant: 78.4, screening length: 8.12261 Bohr) occupying 0.718478 of unit cell:	Completed after 20 iterations at t[s]:   9191.51
	Linear fluid (dielectric constant: 78.4, screening length: 8.12261 Bohr) occupying 0.717904 of unit cell:	Completed after 18 iterations at t[s]:   9239.09
	FillingsUpdate:  mu: -0.127200000  nElectrons: 217.795106  magneticMoment: [ Abs: 1.45850  Tot: +1.22989 ]
	SubspaceRotationAdjust: set factor to 0.192
ElecMinimize: Iter:   1  G: -343.604942623021884  |grad|_K:  9.600e-06  alpha:  2.857e-01  linmin:  1.490e-02  t[s]:   9288.95
	Linear fluid (dielectric constant: 78.4, screening length: 8.12261 Bohr) occupying 0.718740 of unit cell:	Completed after 13 iterations at t[s]:   9338.90
	Linear fluid (dielectric constant: 78.4, screening length: 8.12261 Bohr) occupying 0.718951 of unit cell:	Completed after 9 iterations at t[s]:   9381.04
	FillingsUpdate:  mu: -0.127200000  nElectrons: 217.673127  magneticMoment: [ Abs: 1.34475  Tot: +1.09969 ]
	SubspaceRotationAdjust: set factor to 0.143
ElecMinimize: Iter:   2  G: -343.606807299693457  |grad|_K:  5.646e-06  alpha:  3.749e-01  linmin: -4.367e-04  t[s]:   9430.23
	Linear fluid (dielectric constant: 78.4, screening length: 8.12261 Bohr) occupying 0.719365 of unit cell:	Completed after 17 iterations at t[s]:   9483.06
	Linear fluid (dielectric constant: 78.4, screening length: 8.12261 Bohr) occupying 0.719254 of unit cell:	Completed after 13 iterations at t[s]:   9527.38
	FillingsUpdate:  mu: -0.127200000  nElectrons: 217.757383  magneticMoment: [ Abs: 1.38682  Tot: +1.14952 ]
	SubspaceRotationAdjust: set factor to 0.114
ElecMinimize: Iter:   3  G: -343.608613359587366  |grad|_K:  3.162e-06  alpha:  2.740e-01  linmin: -5.001e-05  t[s]:   9578.48
	Linear fluid (dielectric constant: 78.4, screening length: 8.12261 Bohr) occupying 0.719375 of unit cell:	Completed after 13 iterations at t[s]:   9628.73
	Linear fluid (dielectric constant: 78.4, screening length: 8.12261 Bohr) occupying 0.719420 of unit cell:	Completed after 9 iterations at t[s]:   9670.23
	FillingsUpdate:  mu: -0.127200000  nElectrons: 217.783704  magneticMoment: [ Abs: 1.38999  Tot: +1.15741 ]
	SubspaceRotationAdjust: set factor to 0.147
ElecMinimize: Iter:   4  G: -343.609382185289633  |grad|_K:  1.568e-06  alpha:  3.759e-01  linmin:  2.299e-05  t[s]:   9719.84
	Linear fluid (dielectric constant: 78.4, screening length: 8.12261 Bohr) occupying 0.719458 of unit cell:	Completed after 11 iterations at t[s]:   9768.76
	Linear fluid (dielectric constant: 78.4, screening length: 8.12261 Bohr) occupying 0.719472 of unit cell:	Completed after 8 iterations at t[s]:   9809.79
	FillingsUpdate:  mu: -0.127200000  nElectrons: 217.758188  magneticMoment: [ Abs: 1.36971  Tot: +1.13534 ]
	SubspaceRotationAdjust: set factor to 0.16
ElecMinimize: Iter:   5  G: -343.609641145090166  |grad|_K:  1.242e-06  alpha:  5.129e-01  linmin: -5.370e-04  t[s]:   9860.66
	Linear fluid (dielectric constant: 78.4, screening length: 8.12261 Bohr) occupying 0.719511 of unit cell:	Completed after 11 iterations at t[s]:   9909.47
	Linear fluid (dielectric constant: 78.4, screening length: 8.12261 Bohr) occupying 0.719503 of unit cell:	Completed after 3 iterations at t[s]:   9948.33
	FillingsUpdate:  mu: -0.127200000  nElectrons: 217.742235  magneticMoment: [ Abs: 1.35812  Tot: +1.12201 ]
	SubspaceRotationAdjust: set factor to 0.216
ElecMinimize: Iter:   6  G: -343.609774434316137  |grad|_K:  8.168e-07  alpha:  4.139e-01  linmin:  2.069e-06  t[s]:   9997.98
	Linear fluid (dielectric constant: 78.4, screening length: 8.12261 Bohr) occupying 0.719530 of unit cell:	Completed after 3 iterations at t[s]:  10041.46
	Linear fluid (dielectric constant: 78.4, screening length: 8.12261 Bohr) occupying 0.719557 of unit cell:	Completed after 5 iterations at t[s]:  10080.70
	FillingsUpdate:  mu: -0.127200000  nElectrons: 217.730926  magneticMoment: [ Abs: 1.34326  Tot: +1.10382 ]
	SubspaceRotationAdjust: set factor to 0.246
ElecMinimize: Iter:   7  G: -343.609889039465372  |grad|_K:  9.940e-07  alpha:  8.461e-01  linmin:  4.328e-05  t[s]:  10130.05
	Linear fluid (dielectric constant: 78.4, screening length: 8.12261 Bohr) occupying 0.719649 of unit cell:	Completed after 8 iterations at t[s]:  10177.17
	Linear fluid (dielectric constant: 78.4, screening length: 8.12261 Bohr) occupying 0.719610 of unit cell:	Completed after 4 iterations at t[s]:  10215.41
	FillingsUpdate:  mu: -0.127200000  nElectrons: 217.719433  magneticMoment: [ Abs: 1.32382  Tot: +1.08001 ]
	SubspaceRotationAdjust: set factor to 0.289
ElecMinimize: Iter:   8  G: -343.609978375114167  |grad|_K:  7.904e-07  alpha:  4.658e-01  linmin:  7.799e-05  t[s]:  10264.68
	Linear fluid (dielectric constant: 78.4, screening length: 8.12261 Bohr) occupying 0.719655 of unit cell:	Completed after 8 iterations at t[s]:  10312.08
	Linear fluid (dielectric constant: 78.4, screening length: 8.12261 Bohr) occupying 0.719676 of unit cell:	Completed after 3 iterations at t[s]:  10349.75
	FillingsUpdate:  mu: -0.127200000  nElectrons: 217.722527  magneticMoment: [ Abs: 1.30431  Tot: +1.05523 ]
	SubspaceRotationAdjust: set factor to 0.321
ElecMinimize: Iter:   9  G: -343.610067064492000  |grad|_K:  7.146e-07  alpha:  7.018e-01  linmin: -2.885e-05  t[s]:  10398.64
	Linear fluid (dielectric constant: 78.4, screening length: 8.12261 Bohr) occupying 0.719727 of unit cell:	Completed after 9 iterations at t[s]:  10446.41
	Linear fluid (dielectric constant: 78.4, screening length: 8.12261 Bohr) occupying 0.719708 of unit cell:	Completed after 6 iterations at t[s]:  10485.94
	FillingsUpdate:  mu: -0.127200000  nElectrons: 217.725048  magneticMoment: [ Abs: 1.29279  Tot: +1.03990 ]
	SubspaceRotationAdjust: set factor to 0.353
ElecMinimize: Iter:  10  G: -343.610111995489092  |grad|_K:  5.465e-07  alpha:  4.266e-01  linmin: -1.992e-05  t[s]:  10535.05
	Linear fluid (dielectric constant: 78.4, screening length: 8.12261 Bohr) occupying 0.719718 of unit cell:	Completed after 9 iterations at t[s]:  10582.77
	Linear fluid (dielectric constant: 78.4, screening length: 8.12261 Bohr) occupying 0.719717 of unit cell:	Completed after 1 iterations at t[s]:  10618.75
	FillingsUpdate:  mu: -0.127200000  nElectrons: 217.716858  magneticMoment: [ Abs: 1.28112  Tot: +1.02621 ]
	SubspaceRotationAdjust: set factor to 0.355
ElecMinimize: Iter:  11  G: -343.610136354289693  |grad|_K:  3.748e-07  alpha:  4.007e-01  linmin: -1.896e-04  t[s]:  10668.24
	Linear fluid (dielectric constant: 78.4, screening length: 8.12261 Bohr) occupying 0.719717 of unit cell:	Completed after 3 iterations at t[s]:  10711.56
	Linear fluid (dielectric constant: 78.4, screening length: 8.12261 Bohr) occupying 0.719717 of unit cell:	Completed after 2 iterations at t[s]:  10748.16
	FillingsUpdate:  mu: -0.127200000  nElectrons: 217.715424  magneticMoment: [ Abs: 1.27298  Tot: +1.01610 ]
	SubspaceRotationAdjust: set factor to 0.455
ElecMinimize: Iter:  12  G: -343.610151416908366  |grad|_K:  2.625e-07  alpha:  5.154e-01  linmin: -7.018e-05  t[s]:  10799.16
	Linear fluid (dielectric constant: 78.4, screening length: 8.12261 Bohr) occupying 0.719713 of unit cell:	Completed after 5 iterations at t[s]:  10843.63
	Linear fluid (dielectric constant: 78.4, screening length: 8.12261 Bohr) occupying 0.719714 of unit cell:	Completed after 2 iterations at t[s]:  10881.67
	FillingsUpdate:  mu: -0.127200000  nElectrons: 217.718886  magneticMoment: [ Abs: 1.26998  Tot: +1.01132 ]
	SubspaceRotationAdjust: set factor to 0.406
ElecMinimize: Iter:  13  G: -343.610157275585607  |grad|_K:  2.254e-07  alpha:  4.161e-01  linmin:  1.423e-04  t[s]:  10931.15
	Linear fluid (dielectric constant: 78.4, screening length: 8.12261 Bohr) occupying 0.719708 of unit cell:	Completed after 3 iterations at t[s]:  10974.31
	Linear fluid (dielectric constant: 78.4, screening length: 8.12261 Bohr) occupying 0.719707 of unit cell:	Completed after 0 iterations at t[s]:  11009.58
	FillingsUpdate:  mu: -0.127200000  nElectrons: 217.717690  magneticMoment: [ Abs: 1.26454  Tot: +1.00452 ]
	SubspaceRotationAdjust: set factor to 0.574
ElecMinimize: Iter:  14  G: -343.610162016737888  |grad|_K:  1.367e-07  alpha:  4.614e-01  linmin: -2.568e-04  t[s]:  11059.32
	Linear fluid (dielectric constant: 78.4, screening length: 8.12261 Bohr) occupying 0.719703 of unit cell:	Completed after 3 iterations at t[s]:  11102.58
	Linear fluid (dielectric constant: 78.4, screening length: 8.12261 Bohr) occupying 0.719702 of unit cell:	Completed after 0 iterations at t[s]:  11137.78
	FillingsUpdate:  mu: -0.127200000  nElectrons: 217.715679  magneticMoment: [ Abs: 1.26119  Tot: +1.00054 ]
	SubspaceRotationAdjust: set factor to 0.574
ElecMinimize: Iter:  15  G: -343.610164172796090  |grad|_K:  1.229e-07  alpha:  5.408e-01  linmin: -5.470e-04  t[s]:  11187.02
	Linear fluid (dielectric constant: 78.4, screening length: 8.12261 Bohr) occupying 0.719698 of unit cell:	Completed after 3 iterations at t[s]:  11230.55
	Linear fluid (dielectric constant: 78.4, screening length: 8.12261 Bohr) occupying 0.719700 of unit cell:	Completed after 2 iterations at t[s]:  11267.76
	FillingsUpdate:  mu: -0.127200000  nElectrons: 217.716644  magneticMoment: [ Abs: 1.26001  Tot: +0.99849 ]
	SubspaceRotationAdjust: set factor to 0.5
ElecMinimize: Iter:  16  G: -343.610165305750002  |grad|_K:  9.912e-08  alpha:  3.334e-01  linmin:  1.246e-04  t[s]:  11316.71
	Linear fluid (dielectric constant: 78.4, screening length: 8.12261 Bohr) occupying 0.719698 of unit cell:	Completed after 2 iterations at t[s]:  11359.64
	Linear fluid (dielectric constant: 78.4, screening length: 8.12261 Bohr) occupying 0.719698 of unit cell:	Completed after 0 iterations at t[s]:  11394.64
	FillingsUpdate:  mu: -0.127200000  nElectrons: 217.717442  magneticMoment: [ Abs: 1.25827  Tot: +0.99616 ]
	SubspaceRotationAdjust: set factor to 0.628
ElecMinimize: Iter:  17  G: -343.610166062986877  |grad|_K:  5.932e-08  alpha:  3.830e-01  linmin: -3.595e-04  t[s]:  11443.90
	Linear fluid (dielectric constant: 78.4, screening length: 8.12261 Bohr) occupying 0.719698 of unit cell:	Completed after 2 iterations at t[s]:  11487.07
	Linear fluid (dielectric constant: 78.4, screening length: 8.12261 Bohr) occupying 0.719698 of unit cell:	Completed after 0 iterations at t[s]:  11521.99
	FillingsUpdate:  mu: -0.127200000  nElectrons: 217.717667  magneticMoment: [ Abs: 1.25749  Tot: +0.99525 ]
	SubspaceRotationAdjust: set factor to 0.598
ElecMinimize: Iter:  18  G: -343.610166319136624  |grad|_K:  6.073e-08  alpha:  3.448e-01  linmin: -5.929e-04  t[s]:  11572.41
	Linear fluid (dielectric constant: 78.4, screening length: 8.12261 Bohr) occupying 0.719698 of unit cell:	Completed after 3 iterations at t[s]:  11616.78
	Linear fluid (dielectric constant: 78.4, screening length: 8.12261 Bohr) occupying 0.719698 of unit cell:	Completed after 0 iterations at t[s]:  11652.43
	FillingsUpdate:  mu: -0.127200000  nElectrons: 217.718068  magneticMoment: [ Abs: 1.25724  Tot: +0.99481 ]
	SubspaceRotationAdjust: set factor to 0.402
ElecMinimize: Iter:  19  G: -343.610166526838157  |grad|_K:  4.327e-08  alpha:  2.400e-01  linmin:  1.298e-03  t[s]:  11701.63
	Linear fluid (dielectric constant: 78.4, screening length: 8.12261 Bohr) occupying 0.719698 of unit cell:	Completed after 1 iterations at t[s]:  11743.96
	Linear fluid (dielectric constant: 78.4, screening length: 8.12261 Bohr) occupying 0.719698 of unit cell:	Completed after 0 iterations at t[s]:  11778.65
	FillingsUpdate:  mu: -0.127200000  nElectrons: 217.717593  magneticMoment: [ Abs: 1.25691  Tot: +0.99452 ]
	SubspaceRotationAdjust: set factor to 0.395
ElecMinimize: Iter:  20  G: -343.610166594162365  |grad|_K:  2.667e-08  alpha:  2.195e-01  linmin: -1.455e-03  t[s]:  11827.94
	Linear fluid (dielectric constant: 78.4, screening length: 8.12261 Bohr) occupying 0.719698 of unit cell:	Completed after 0 iterations at t[s]:  11868.82
	Linear fluid (dielectric constant: 78.4, screening length: 8.12261 Bohr) occupying 0.719698 of unit cell:	Completed after 0 iterations at t[s]:  11903.62
	FillingsUpdate:  mu: -0.127200000  nElectrons: 217.717219  magneticMoment: [ Abs: 1.25667  Tot: +0.99433 ]
	SubspaceRotationAdjust: set factor to 0.471
ElecMinimize: Iter:  21  G: -343.610166678985252  |grad|_K:  1.773e-08  alpha:  4.944e-01  linmin:  6.963e-05  t[s]:  11953.10
ElecMinimize: Converged (|Delta G|<1.000000e-07 for 2 iters).
Setting wave functions to eigenvectors of Hamiltonian
Converging empty states (this may take a while): |deigs|: 7.718e-04
Single-point solvation energy estimate, DeltaG = +0.000708625044581

Computing DFT-D3 correction:
# coordination-number C 3.298 3.320 3.332 3.329 3.310 3.287 3.323 3.627 3.325 3.310 3.297 3.312 3.300 3.299 3.321 3.510 3.263 3.298 3.318 3.333 3.327 3.298 3.300 3.325 3.332 3.318 3.298 3.263 3.628 3.320 3.298 3.298 3.324 3.299 3.310 3.327 3.511 3.313 3.287 3.310 3.329 3.333 3.320 3.297 1.114
# coordination-number N 3.177 3.166 3.176 3.165
# coordination-number Ti 5.457
# coordination-number O 1.003
# diagonal-C6 C 24.30 24.08 23.96 23.98 24.18 24.41 24.05 19.98 24.03 24.18 24.31 24.16 24.28 24.29 24.08 21.50 24.61 24.31 24.11 23.94 24.01 24.30 24.28 24.03 23.95 24.11 24.30 24.61 19.96 24.08 24.31 24.30 24.04 24.29 24.18 24.01 21.48 24.15 24.40 24.18 23.98 23.95 24.08 24.31 42.60
# diagonal-C6 N 15.60 15.60 15.60 15.60
# diagonal-C6 Ti 321.59
# diagonal-C6 O 12.81
EvdW_6 =   -0.037572
EvdW_8 =   -0.030185
Completed 1 of 7 configurations.

Computing DFT-D3 correction:
# coordination-number C 3.298 3.320 3.332 3.329 3.310 3.287 3.323 3.627 3.325 3.310 3.297 3.312 3.300 3.299 3.321 3.510 3.263 3.298 3.318 3.333 3.327 3.298 3.300 3.325 3.332 3.318 3.298 3.263 3.628 3.320 3.298 3.298 3.324 3.299 3.310 3.327 3.511 3.313 3.287 3.310 3.329 3.333 3.320 3.297 1.114
# coordination-number N 3.177 3.166 3.176 3.165
# coordination-number Ti 5.457
# coordination-number O 1.003
# diagonal-C6 C 24.30 24.08 23.96 23.98 24.18 24.41 24.05 19.98 24.03 24.18 24.31 24.16 24.28 24.29 24.08 21.50 24.61 24.31 24.11 23.94 24.01 24.30 24.28 24.03 23.95 24.11 24.30 24.61 19.96 24.08 24.31 24.30 24.04 24.29 24.18 24.01 21.48 24.15 24.40 24.18 23.98 23.95 24.08 24.31 42.60
# diagonal-C6 N 15.60 15.60 15.60 15.60
# diagonal-C6 Ti 321.59
# diagonal-C6 O 12.81
EvdW_6 =   -0.037572
EvdW_8 =   -0.030185
Shifting auxilliary hamiltonian by 0.000002 to set nElectrons=217.717219

-------- Electronic minimization -----------
	Linear fluid (dielectric constant: 78.4, screening length: 8.12261 Bohr) occupying 0.719699 of unit cell:	Completed after 6 iterations at t[s]:  12829.11
	FillingsUpdate:  mu: -0.127200000  nElectrons: 217.717219  magneticMoment: [ Abs: 1.25707  Tot: +0.99478 ]
ElecMinimize: Iter:   0  G: -343.610152008587249  |grad|_K:  3.249e-07  alpha:  1.000e+00
	Linear fluid (dielectric constant: 78.4, screening length: 8.12261 Bohr) occupying 0.719699 of unit cell:	Completed after 3 iterations at t[s]:  12928.31
	Linear fluid (dielectric constant: 78.4, screening length: 8.12261 Bohr) occupying 0.719699 of unit cell:	Completed after 3 iterations at t[s]:  12965.75
	FillingsUpdate:  mu: -0.127200000  nElectrons: 217.717076  magneticMoment: [ Abs: 1.25635  Tot: +0.99415 ]
	SubspaceRotationAdjust: set factor to 0.47
ElecMinimize: Iter:   1  G: -343.610167072806235  |grad|_K:  1.538e-07  alpha:  7.003e-01  linmin:  3.518e-05  t[s]:  13014.85
	Linear fluid (dielectric constant: 78.4, screening length: 8.12261 Bohr) occupying 0.719699 of unit cell:	Completed after 5 iterations at t[s]:  13059.58
	Linear fluid (dielectric constant: 78.4, screening length: 8.12261 Bohr) occupying 0.719699 of unit cell:	Completed after 3 iterations at t[s]:  13097.52
	FillingsUpdate:  mu: -0.127200000  nElectrons: 217.718258  magneticMoment: [ Abs: 1.25717  Tot: +0.99462 ]
	SubspaceRotationAdjust: set factor to 0.352
ElecMinimize: Iter:   2  G: -343.610168418813657  |grad|_K:  1.076e-07  alpha:  2.789e-01  linmin:  7.867e-05  t[s]:  13146.74
	Linear fluid (dielectric constant: 78.4, screening length: 8.12261 Bohr) occupying 0.719699 of unit cell:	Completed after 2 iterations at t[s]:  13189.13
	Linear fluid (dielectric constant: 78.4, screening length: 8.12261 Bohr) occupying 0.719698 of unit cell:	Completed after 2 iterations at t[s]:  13226.09
	FillingsUpdate:  mu: -0.127200000  nElectrons: 217.716563  magneticMoment: [ Abs: 1.25686  Tot: +0.99442 ]
	SubspaceRotationAdjust: set factor to 0.444
ElecMinimize: Iter:   3  G: -343.610169721465752  |grad|_K:  4.559e-08  alpha:  5.498e-01  linmin: -1.440e-04  t[s]:  13274.97
	Linear fluid (dielectric constant: 78.4, screening length: 8.12261 Bohr) occupying 0.719699 of unit cell:	Completed after 0 iterations at t[s]:  13316.35
	Linear fluid (dielectric constant: 78.4, screening length: 8.12261 Bohr) occupying 0.719699 of unit cell:	Completed after 1 iterations at t[s]:  13352.62
	FillingsUpdate:  mu: -0.127200000  nElectrons: 217.717437  magneticMoment: [ Abs: 1.25680  Tot: +0.99421 ]
	SubspaceRotationAdjust: set factor to 0.488
ElecMinimize: Iter:   4  G: -343.610170010744753  |grad|_K:  3.377e-08  alpha:  8.890e-01  linmin:  5.172e-04  t[s]:  13401.99
	Linear fluid (dielectric constant: 78.4, screening length: 8.12261 Bohr) occupying 0.719699 of unit cell:	Completed after 2 iterations at t[s]:  13444.78
	Linear fluid (dielectric constant: 78.4, screening length: 8.12261 Bohr) occupying 0.719699 of unit cell:	Completed after 1 iterations at t[s]:  13481.02
	FillingsUpdate:  mu: -0.127200000  nElectrons: 217.717564  magneticMoment: [ Abs: 1.25691  Tot: +0.99422 ]
	SubspaceRotationAdjust: set factor to 0.442
ElecMinimize: Iter:   5  G: -343.610170079960426  |grad|_K:  2.628e-08  alpha:  3.794e-01  linmin:  1.066e-04  t[s]:  13530.72
	Linear fluid (dielectric constant: 78.4, screening length: 8.12261 Bohr) occupying 0.719699 of unit cell:	Completed after 1 iterations at t[s]:  13572.86
	Linear fluid (dielectric constant: 78.4, screening length: 8.12261 Bohr) occupying 0.719699 of unit cell:	Completed after 0 iterations at t[s]:  13607.39
	FillingsUpdate:  mu: -0.127200000  nElectrons: 217.717170  magneticMoment: [ Abs: 1.25680  Tot: +0.99412 ]
	SubspaceRotationAdjust: set factor to 0.431
ElecMinimize: Iter:   6  G: -343.610170121616818  |grad|_K:  1.278e-08  alpha:  3.269e-01  linmin: -2.353e-04  t[s]:  13657.19
ElecMinimize: Converged (|Delta G|<1.000000e-07 for 2 iters).
Setting wave functions to eigenvectors of Hamiltonian
Converging empty states (this may take a while): |deigs|: 1.799e-07

Computing DFT-D3 correction:
# coordination-number C 3.298 3.320 3.332 3.329 3.310 3.287 3.323 3.627 3.325 3.310 3.297 3.312 3.300 3.299 3.321 3.510 3.263 3.298 3.318 3.333 3.327 3.298 3.300 3.325 3.332 3.318 3.298 3.263 3.628 3.320 3.298 3.298 3.324 3.299 3.310 3.327 3.511 3.313 3.287 3.310 3.329 3.333 3.320 3.297 1.114
# coordination-number N 3.177 3.166 3.176 3.165
# coordination-number Ti 5.457
# coordination-number O 1.003
# diagonal-C6 C 24.30 24.08 23.96 23.98 24.18 24.41 24.05 19.98 24.03 24.18 24.31 24.16 24.28 24.29 24.08 21.50 24.61 24.31 24.11 23.94 24.01 24.30 24.28 24.03 23.95 24.11 24.30 24.61 19.96 24.08 24.31 24.30 24.04 24.29 24.18 24.01 21.48 24.15 24.40 24.18 23.98 23.95 24.08 24.31 42.60
# diagonal-C6 N 15.60 15.60 15.60 15.60
# diagonal-C6 Ti 321.59
# diagonal-C6 O 12.81
EvdW_6 =   -0.037572
EvdW_8 =   -0.030185
Completed 2 of 7 configurations.

Computing DFT-D3 correction:
# coordination-number C 3.298 3.320 3.332 3.329 3.310 3.287 3.323 3.627 3.325 3.310 3.297 3.312 3.300 3.299 3.321 3.510 3.263 3.298 3.318 3.333 3.327 3.298 3.300 3.325 3.332 3.318 3.298 3.263 3.628 3.320 3.298 3.298 3.324 3.299 3.310 3.327 3.511 3.313 3.287 3.310 3.329 3.333 3.320 3.297 1.114
# coordination-number N 3.177 3.166 3.176 3.165
# coordination-number Ti 5.457
# coordination-number O 1.003
# diagonal-C6 C 24.30 24.08 23.96 23.98 24.18 24.41 24.05 19.98 24.03 24.18 24.31 24.16 24.28 24.29 24.08 21.50 24.61 24.31 24.11 23.94 24.01 24.30 24.28 24.03 23.95 24.11 24.30 24.61 19.96 24.08 24.31 24.30 24.04 24.29 24.18 24.01 21.48 24.15 24.40 24.18 23.98 23.95 24.08 24.31 42.60
# diagonal-C6 N 15.60 15.60 15.60 15.60
# diagonal-C6 Ti 321.59
# diagonal-C6 O 12.81
EvdW_6 =   -0.037572
EvdW_8 =   -0.030185
Shifting auxilliary hamiltonian by 0.000004 to set nElectrons=217.717170

-------- Electronic minimization -----------
	Linear fluid (dielectric constant: 78.4, screening length: 8.12261 Bohr) occupying 0.719699 of unit cell:	Completed after 7 iterations at t[s]:  13868.02
	FillingsUpdate:  mu: -0.127200000  nElectrons: 217.717170  magneticMoment: [ Abs: 1.25676  Tot: +0.99394 ]
ElecMinimize: Iter:   0  G: -343.610130083794786  |grad|_K:  4.553e-07  alpha:  1.000e+00
	Linear fluid (dielectric constant: 78.4, screening length: 8.12261 Bohr) occupying 0.719699 of unit cell:	Completed after 4 iterations at t[s]:  13967.60
	Linear fluid (dielectric constant: 78.4, screening length: 8.12261 Bohr) occupying 0.719699 of unit cell:	Completed after 3 iterations at t[s]:  14005.34
	FillingsUpdate:  mu: -0.127200000  nElectrons: 217.718388  magneticMoment: [ Abs: 1.25694  Tot: +0.99401 ]
	SubspaceRotationAdjust: set factor to 0.587
ElecMinimize: Iter:   1  G: -343.610160856877428  |grad|_K:  1.531e-07  alpha:  7.282e-01  linmin:  9.887e-05  t[s]:  14055.11
	Linear fluid (dielectric constant: 78.4, screening length: 8.12261 Bohr) occupying 0.719698 of unit cell:	Completed after 3 iterations at t[s]:  14098.74
	Linear fluid (dielectric constant: 78.4, screening length: 8.12261 Bohr) occupying 0.719698 of unit cell:	Completed after 0 iterations at t[s]:  14133.51
	FillingsUpdate:  mu: -0.127200000  nElectrons: 217.716151  magneticMoment: [ Abs: 1.25629  Tot: +0.99378 ]
	SubspaceRotationAdjust: set factor to 0.448
ElecMinimize: Iter:   2  G: -343.610164541382517  |grad|_K:  1.344e-07  alpha:  7.713e-01  linmin: -3.218e-04  t[s]:  14182.39
	Linear fluid (dielectric constant: 78.4, screening length: 8.12261 Bohr) occupying 0.719699 of unit cell:	Completed after 5 iterations at t[s]:  14227.84
	Linear fluid (dielectric constant: 78.4, screening length: 8.12261 Bohr) occupying 0.719699 of unit cell:	Completed after 3 iterations at t[s]:  14265.24
	FillingsUpdate:  mu: -0.127200000  nElectrons: 217.717557  magneticMoment: [ Abs: 1.25699  Tot: +0.99420 ]
	SubspaceRotationAdjust: set factor to 0.309
ElecMinimize: Iter:   3  G: -343.610165530619611  |grad|_K:  7.220e-08  alpha:  2.439e-01  linmin:  6.113e-05  t[s]:  14314.39
	Linear fluid (dielectric constant: 78.4, screening length: 8.12261 Bohr) occupying 0.719699 of unit cell:	Completed after 0 iterations at t[s]:  14355.45
	Linear fluid (dielectric constant: 78.4, screening length: 8.12261 Bohr) occupying 0.719698 of unit cell:	Completed after 2 iterations at t[s]:  14392.56
	FillingsUpdate:  mu: -0.127200000  nElectrons: 217.717482  magneticMoment: [ Abs: 1.25678  Tot: +0.99412 ]
	SubspaceRotationAdjust: set factor to 0.377
ElecMinimize: Iter:   4  G: -343.610166168422666  |grad|_K:  3.099e-08  alpha:  7.153e-01  linmin:  1.983e-03  t[s]:  14441.57
	Linear fluid (dielectric constant: 78.4, screening length: 8.12261 Bohr) occupying 0.719698 of unit cell:	Completed after 0 iterations at t[s]:  14482.80
	Linear fluid (dielectric constant: 78.4, screening length: 8.12261 Bohr) occupying 0.719698 of unit cell:	Completed after 0 iterations at t[s]:  14517.41
	FillingsUpdate:  mu: -0.127200000  nElectrons: 217.717247  magneticMoment: [ Abs: 1.25678  Tot: +0.99417 ]
	SubspaceRotationAdjust: set factor to 0.422
ElecMinimize: Iter:   5  G: -343.610166304213863  |grad|_K:  1.668e-08  alpha:  7.896e-01  linmin:  4.107e-07  t[s]:  14566.11
	Linear fluid (dielectric constant: 78.4, screening length: 8.12261 Bohr) occupying 0.719698 of unit cell:	Completed after 0 iterations at t[s]:  14607.33
	Linear fluid (dielectric constant: 78.4, screening length: 8.12261 Bohr) occupying 0.719698 of unit cell:	Completed after 0 iterations at t[s]:  14642.16
	FillingsUpdate:  mu: -0.127200000  nElectrons: 217.716947  magneticMoment: [ Abs: 1.25682  Tot: +0.99426 ]
	SubspaceRotationAdjust: set factor to 0.488
ElecMinimize: Iter:   6  G: -343.610166346047890  |grad|_K:  1.086e-08  alpha:  7.378e-01  linmin: -9.925e-06  t[s]:  14691.33
	Linear fluid (dielectric constant: 78.4, screening length: 8.12261 Bohr) occupying 0.719698 of unit cell:	Completed after 2 iterations at t[s]:  14734.20
	Linear fluid (dielectric constant: 78.4, screening length: 8.12261 Bohr) occupying 0.719698 of unit cell:	Completed after 0 iterations at t[s]:  14769.45
ElecMinimize: 	Step increased G by 3.591543e-08, reducing alpha to 1.294607e-02.
	Linear fluid (dielectric constant: 78.4, screening length: 8.12261 Bohr) occupying 0.719698 of unit cell:	Completed after 0 iterations at t[s]:  14849.90
ElecMinimize: 	Step increased G by 3.398560e-08, reducing alpha to 1.294607e-03.
	Linear fluid (dielectric constant: 78.4, screening length: 8.12261 Bohr) occupying 0.719698 of unit cell:	Completed after 0 iterations at t[s]:  14932.23
ElecMinimize: 	Step increased G by 3.390079e-08, reducing alpha to 1.294607e-04.
ElecMinimize: 	Step failed to reduce G after 3 attempts. Quitting step.
ElecMinimize: 	Undoing step.
	Linear fluid (dielectric constant: 78.4, screening length: 8.12261 Bohr) occupying 0.719698 of unit cell:	Completed after 0 iterations at t[s]:  15012.75
ElecMinimize: 	Step failed: resetting search direction.
	FillingsUpdate:  mu: -0.127200000  nElectrons: 217.716946  magneticMoment: [ Abs: 1.25682  Tot: +0.99426 ]
	SubspaceRotationAdjust: set factor to 0.452
ElecMinimize: Iter:   7  G: -343.610166312161880  |grad|_K:  2.480e-08  alpha:  1.295e-04
	Linear fluid (dielectric constant: 78.4, screening length: 8.12261 Bohr) occupying 0.719699 of unit cell:	Completed after 2 iterations at t[s]:  15106.29
	Linear fluid (dielectric constant: 78.4, screening length: 8.12261 Bohr) occupying 0.719698 of unit cell:	Completed after 2 iterations at t[s]:  15142.76
	FillingsUpdate:  mu: -0.127200000  nElectrons: 217.717365  magneticMoment: [ Abs: 1.25672  Tot: +0.99416 ]
	SubspaceRotationAdjust: set factor to 0.275
ElecMinimize: Iter:   8  G: -343.610166321461634  |grad|_K:  1.714e-08  alpha:  2.226e-01  linmin:  6.897e-03  t[s]:  15193.12
	Linear fluid (dielectric constant: 78.4, screening length: 8.12261 Bohr) occupying 0.719698 of unit cell:	Completed after 0 iterations at t[s]:  15233.86
ElecMinimize: 	Predicted alpha/alphaT>3.000000, increasing alphaT to 6.678106e-01.
	Linear fluid (dielectric constant: 78.4, screening length: 8.12261 Bohr) occupying 0.719699 of unit cell:	Completed after 2 iterations at t[s]:  15270.38
	Linear fluid (dielectric constant: 78.4, screening length: 8.12261 Bohr) occupying 0.719698 of unit cell:	Completed after 0 iterations at t[s]:  15305.43
	FillingsUpdate:  mu: -0.127200000  nElectrons: 217.717654  magneticMoment: [ Abs: 1.25677  Tot: +0.99418 ]
	SubspaceRotationAdjust: set factor to 0.166
ElecMinimize: Iter:   9  G: -343.610166354597709  |grad|_K:  2.205e-08  alpha:  1.984e-01  linmin:  1.322e-02  t[s]:  15355.07
ElecMinimize: Converged (|Delta G|<1.000000e-07 for 2 iters).
Setting wave functions to eigenvectors of Hamiltonian
Converging empty states (this may take a while): |deigs|: 1.390e-08

Computing DFT-D3 correction:
# coordination-number C 3.298 3.320 3.332 3.329 3.310 3.287 3.323 3.627 3.325 3.310 3.297 3.312 3.300 3.299 3.321 3.510 3.263 3.298 3.318 3.333 3.327 3.298 3.300 3.325 3.332 3.318 3.298 3.263 3.628 3.320 3.298 3.298 3.324 3.299 3.310 3.327 3.511 3.313 3.287 3.310 3.329 3.333 3.320 3.297 1.114
# coordination-number N 3.177 3.166 3.176 3.165
# coordination-number Ti 5.457
# coordination-number O 1.003
# diagonal-C6 C 24.30 24.08 23.96 23.98 24.18 24.41 24.05 19.98 24.03 24.18 24.31 24.16 24.28 24.29 24.08 21.50 24.61 24.31 24.11 23.94 24.01 24.30 24.28 24.03 23.95 24.11 24.30 24.61 19.96 24.08 24.31 24.30 24.04 24.29 24.18 24.01 21.48 24.15 24.40 24.18 23.98 23.95 24.08 24.31 42.60
# diagonal-C6 N 15.60 15.60 15.60 15.60
# diagonal-C6 Ti 321.59
# diagonal-C6 O 12.81
EvdW_6 =   -0.037572
EvdW_8 =   -0.030185
Completed 3 of 7 configurations.

Computing DFT-D3 correction:
# coordination-number C 3.298 3.320 3.332 3.329 3.310 3.287 3.323 3.627 3.325 3.310 3.297 3.312 3.300 3.299 3.321 3.510 3.263 3.298 3.318 3.333 3.327 3.298 3.300 3.325 3.332 3.318 3.298 3.263 3.628 3.320 3.298 3.298 3.324 3.299 3.310 3.327 3.511 3.313 3.287 3.310 3.329 3.333 3.320 3.297 1.112
# coordination-number N 3.177 3.166 3.176 3.165
# coordination-number Ti 5.454
# coordination-number O 1.003
# diagonal-C6 C 24.30 24.08 23.96 23.98 24.18 24.41 24.05 19.98 24.03 24.18 24.31 24.16 24.28 24.29 24.08 21.50 24.61 24.31 24.11 23.94 24.01 24.30 24.28 24.03 23.95 24.11 24.30 24.61 19.96 24.08 24.31 24.30 24.04 24.29 24.18 24.01 21.48 24.15 24.40 24.18 23.98 23.95 24.08 24.31 42.62
# diagonal-C6 N 15.60 15.60 15.60 15.60
# diagonal-C6 Ti 321.59
# diagonal-C6 O 12.81
EvdW_6 =   -0.037568
EvdW_8 =   -0.030185
Shifting auxilliary hamiltonian by -0.000030 to set nElectrons=217.717654

-------- Electronic minimization -----------
	Linear fluid (dielectric constant: 78.4, screening length: 8.12261 Bohr) occupying 0.719691 of unit cell:	Completed after 7 iterations at t[s]:  15527.40
	FillingsUpdate:  mu: -0.127200000  nElectrons: 217.717654  magneticMoment: [ Abs: 1.25540  Tot: +0.99315 ]
ElecMinimize: Iter:   0  G: -343.609991910988242  |grad|_K:  6.066e-07  alpha:  1.000e+00
	Linear fluid (dielectric constant: 78.4, screening length: 8.12261 Bohr) occupying 0.719711 of unit cell:	Completed after 7 iterations at t[s]:  15629.61
	Linear fluid (dielectric constant: 78.4, screening length: 8.12261 Bohr) occupying 0.719703 of unit cell:	Completed after 4 iterations at t[s]:  15667.12
[...]
disp C   0.000000000000000   0.000000000000000   0.000000000000000
disp C   0.000000000000000   0.000000000000000   0.000000000000000
disp C   0.000000000000000   0.000000000000000   0.000000000000000
disp C   0.000000000000000   0.000000000000000   0.000000000000000
disp C   0.000000000000000   0.000000000000000   0.000000000000000
disp C   0.000000000000000   0.000000000000000   0.000000000000000
disp C   0.000000000000000   0.000000000000000   0.000000000000000
disp C   0.000000000000000   0.000000000000000   0.000000000000000
disp C   0.000000000000000   0.000000000000000   0.000000000000000
disp C   0.000000000000000   0.000000000000000   0.000000000000000
disp C   0.000000000000000   0.000000000000000   0.000000000000000
disp C   0.000000000000000   0.000000000000000   0.000000000000000
disp C   0.000000000000000   0.000000000000000   0.000000000000000
disp C   0.000000000000000   0.000000000000000   0.000000000000000
disp C   0.000000000000000   0.000000000000000   0.000000000000000
disp C   0.000000000000000   0.000000000000000   0.000000000000000
disp C   0.000000000000000   0.000000000000000   0.000000000000000
disp C   0.000000000000000   0.000000000000000   0.000000000000000
disp C   0.000000000000000   0.000000000000000   0.000000000000000
disp C   0.000000000000000   0.000000000000000   0.000000000000000
disp C  -0.001031471497846  -0.002452314774974   0.003247110609200
disp N   0.000000000000000   0.000000000000000   0.000000000000000
disp N   0.000000000000000   0.000000000000000   0.000000000000000
disp N   0.000000000000000   0.000000000000000   0.000000000000000
disp N   0.000000000000000   0.000000000000000   0.000000000000000
disp Ti   0.000000000000000   0.000000000000000   0.000000000000000
disp O  -0.003084287164594  -0.000782960897057   0.003306498839791

Real mode 1:
Frequency: 0.000612 Eh [ 134 cm^-1 ]
Degeneracy: 1 of 1
IR intensity: 0.0072 e^2/amu [ 7.1 km/mol ]
Displacements:
disp C   0.000000000000000   0.000000000000000   0.000000000000000
disp C   0.000000000000000   0.000000000000000   0.000000000000000
disp C   0.000000000000000   0.000000000000000   0.000000000000000
disp C   0.000000000000000   0.000000000000000   0.000000000000000
disp C   0.000000000000000   0.000000000000000   0.000000000000000
disp C   0.000000000000000   0.000000000000000   0.000000000000000
disp C   0.000000000000000   0.000000000000000   0.000000000000000
disp C   0.000000000000000   0.000000000000000   0.000000000000000
disp C   0.000000000000000   0.000000000000000   0.000000000000000
disp C   0.000000000000000   0.000000000000000   0.000000000000000
disp C   0.000000000000000   0.000000000000000   0.000000000000000
disp C   0.000000000000000   0.000000000000000   0.000000000000000
disp C   0.000000000000000   0.000000000000000   0.000000000000000
disp C   0.000000000000000   0.000000000000000   0.000000000000000
disp C   0.000000000000000   0.000000000000000   0.000000000000000
disp C   0.000000000000000   0.000000000000000   0.000000000000000
disp C   0.000000000000000   0.000000000000000   0.000000000000000
disp C   0.000000000000000   0.000000000000000   0.000000000000000
disp C   0.000000000000000   0.000000000000000   0.000000000000000
disp C   0.000000000000000   0.000000000000000   0.000000000000000
disp C   0.000000000000000   0.000000000000000   0.000000000000000
disp C   0.000000000000000   0.000000000000000   0.000000000000000
disp C   0.000000000000000   0.000000000000000   0.000000000000000
disp C   0.000000000000000   0.000000000000000   0.000000000000000
disp C   0.000000000000000   0.000000000000000   0.000000000000000
disp C   0.000000000000000   0.000000000000000   0.000000000000000
disp C   0.000000000000000   0.000000000000000   0.000000000000000
disp C   0.000000000000000   0.000000000000000   0.000000000000000
disp C   0.000000000000000   0.000000000000000   0.000000000000000
disp C   0.000000000000000   0.000000000000000   0.000000000000000
disp C   0.000000000000000   0.000000000000000   0.000000000000000
disp C   0.000000000000000   0.000000000000000   0.000000000000000
disp C   0.000000000000000   0.000000000000000   0.000000000000000
disp C   0.000000000000000   0.000000000000000   0.000000000000000
disp C   0.000000000000000   0.000000000000000   0.000000000000000
disp C   0.000000000000000   0.000000000000000   0.000000000000000
disp C   0.000000000000000   0.000000000000000   0.000000000000000
disp C   0.000000000000000   0.000000000000000   0.000000000000000
disp C   0.000000000000000   0.000000000000000   0.000000000000000
disp C   0.000000000000000   0.000000000000000   0.000000000000000
disp C   0.000000000000000   0.000000000000000   0.000000000000000
disp C   0.000000000000000   0.000000000000000   0.000000000000000
disp C   0.000000000000000   0.000000000000000   0.000000000000000
disp C   0.000000000000000   0.000000000000000   0.000000000000000
disp C   0.002908925012559   0.005301967630881   0.000724899970724
disp N   0.000000000000000   0.000000000000000   0.000000000000000
disp N   0.000000000000000   0.000000000000000   0.000000000000000
disp N   0.000000000000000   0.000000000000000   0.000000000000000
disp N   0.000000000000000   0.000000000000000   0.000000000000000
disp Ti   0.000000000000000   0.000000000000000   0.000000000000000
disp O  -0.002385312857123  -0.000348502861294   0.000791310155343

Real mode 2:
Frequency: 0.000833 Eh [ 183 cm^-1 ]
Degeneracy: 1 of 1
IR intensity: 0.0129 e^2/amu [ 12.6 km/mol ]
Displacements:
disp C   0.000000000000000   0.000000000000000   0.000000000000000
disp C   0.000000000000000   0.000000000000000   0.000000000000000
disp C   0.000000000000000   0.000000000000000   0.000000000000000
disp C   0.000000000000000   0.000000000000000   0.000000000000000
disp C   0.000000000000000   0.000000000000000   0.000000000000000
disp C   0.000000000000000   0.000000000000000   0.000000000000000
disp C   0.000000000000000   0.000000000000000   0.000000000000000
disp C   0.000000000000000   0.000000000000000   0.000000000000000
disp C   0.000000000000000   0.000000000000000   0.000000000000000
disp C   0.000000000000000   0.000000000000000   0.000000000000000
disp C   0.000000000000000   0.000000000000000   0.000000000000000
disp C   0.000000000000000   0.000000000000000   0.000000000000000
disp C   0.000000000000000   0.000000000000000   0.000000000000000
disp C   0.000000000000000   0.000000000000000   0.000000000000000
disp C   0.000000000000000   0.000000000000000   0.000000000000000
disp C   0.000000000000000   0.000000000000000   0.000000000000000
disp C   0.000000000000000   0.000000000000000   0.000000000000000
disp C   0.000000000000000   0.000000000000000   0.000000000000000
disp C   0.000000000000000   0.000000000000000   0.000000000000000
disp C   0.000000000000000   0.000000000000000   0.000000000000000
disp C   0.000000000000000   0.000000000000000   0.000000000000000
disp C   0.000000000000000   0.000000000000000   0.000000000000000
disp C   0.000000000000000   0.000000000000000   0.000000000000000
disp C   0.000000000000000   0.000000000000000   0.000000000000000
disp C   0.000000000000000   0.000000000000000   0.000000000000000
disp C   0.000000000000000   0.000000000000000   0.000000000000000
disp C   0.000000000000000   0.000000000000000   0.000000000000000
disp C   0.000000000000000   0.000000000000000   0.000000000000000
disp C   0.000000000000000   0.000000000000000   0.000000000000000
disp C   0.000000000000000   0.000000000000000   0.000000000000000
disp C   0.000000000000000   0.000000000000000   0.000000000000000
disp C   0.000000000000000   0.000000000000000   0.000000000000000
disp C   0.000000000000000   0.000000000000000   0.000000000000000
disp C   0.000000000000000   0.000000000000000   0.000000000000000
disp C   0.000000000000000   0.000000000000000   0.000000000000000
disp C   0.000000000000000   0.000000000000000   0.000000000000000
disp C   0.000000000000000   0.000000000000000   0.000000000000000
disp C   0.000000000000000   0.000000000000000   0.000000000000000
disp C   0.000000000000000   0.000000000000000   0.000000000000000
disp C   0.000000000000000   0.000000000000000   0.000000000000000
disp C   0.000000000000000   0.000000000000000   0.000000000000000
disp C   0.000000000000000   0.000000000000000   0.000000000000000
disp C   0.000000000000000   0.000000000000000   0.000000000000000
disp C   0.000000000000000   0.000000000000000   0.000000000000000
disp C  -0.003110313128511   0.000156933859169  -0.002491841890603
disp N   0.000000000000000   0.000000000000000   0.000000000000000
disp N   0.000000000000000   0.000000000000000   0.000000000000000
disp N   0.000000000000000   0.000000000000000   0.000000000000000
disp N   0.000000000000000   0.000000000000000   0.000000000000000
disp Ti   0.000000000000000   0.000000000000000   0.000000000000000
disp O  -0.003982312170256  -0.000109195264320  -0.002544493962541

Real mode 3:
Frequency: 0.001104 Eh [ 242 cm^-1 ]
Degeneracy: 1 of 1
IR intensity: 0.0237 e^2/amu [ 23.1 km/mol ]
Displacements:
disp C   0.000000000000000   0.000000000000000   0.000000000000000
disp C   0.000000000000000   0.000000000000000   0.000000000000000
disp C   0.000000000000000   0.000000000000000   0.000000000000000
disp C   0.000000000000000   0.000000000000000   0.000000000000000
disp C   0.000000000000000   0.000000000000000   0.000000000000000
disp C   0.000000000000000   0.000000000000000   0.000000000000000
disp C   0.000000000000000   0.000000000000000   0.000000000000000
disp C   0.000000000000000   0.000000000000000   0.000000000000000
disp C   0.000000000000000   0.000000000000000   0.000000000000000
disp C   0.000000000000000   0.000000000000000   0.000000000000000
disp C   0.000000000000000   0.000000000000000   0.000000000000000
disp C   0.000000000000000   0.000000000000000   0.000000000000000
disp C   0.000000000000000   0.000000000000000   0.000000000000000
disp C   0.000000000000000   0.000000000000000   0.000000000000000
disp C   0.000000000000000   0.000000000000000   0.000000000000000
disp C   0.000000000000000   0.000000000000000   0.000000000000000
disp C   0.000000000000000   0.000000000000000   0.000000000000000
disp C   0.000000000000000   0.000000000000000   0.000000000000000
disp C   0.000000000000000   0.000000000000000   0.000000000000000
disp C   0.000000000000000   0.000000000000000   0.000000000000000
disp C   0.000000000000000   0.000000000000000   0.000000000000000
disp C   0.000000000000000   0.000000000000000   0.000000000000000
disp C   0.000000000000000   0.000000000000000   0.000000000000000
disp C   0.000000000000000   0.000000000000000   0.000000000000000
disp C   0.000000000000000   0.000000000000000   0.000000000000000
disp C   0.000000000000000   0.000000000000000   0.000000000000000
disp C   0.000000000000000   0.000000000000000   0.000000000000000
disp C   0.000000000000000   0.000000000000000   0.000000000000000
disp C   0.000000000000000   0.000000000000000   0.000000000000000
disp C   0.000000000000000   0.000000000000000   0.000000000000000
disp C   0.000000000000000   0.000000000000000   0.000000000000000
disp C   0.000000000000000   0.000000000000000   0.000000000000000
disp C   0.000000000000000   0.000000000000000   0.000000000000000
disp C   0.000000000000000   0.000000000000000   0.000000000000000
disp C   0.000000000000000   0.000000000000000   0.000000000000000
disp C   0.000000000000000   0.000000000000000   0.000000000000000
disp C   0.000000000000000   0.000000000000000   0.000000000000000
disp C   0.000000000000000   0.000000000000000   0.000000000000000
disp C   0.000000000000000   0.000000000000000   0.000000000000000
disp C   0.000000000000000   0.000000000000000   0.000000000000000
disp C   0.000000000000000   0.000000000000000   0.000000000000000
disp C   0.000000000000000   0.000000000000000   0.000000000000000
disp C   0.000000000000000   0.000000000000000   0.000000000000000
disp C   0.000000000000000   0.000000000000000   0.000000000000000
disp C   0.004419797965768  -0.002903195180107  -0.001321106476930
disp N   0.000000000000000   0.000000000000000   0.000000000000000
disp N   0.000000000000000   0.000000000000000   0.000000000000000
disp N   0.000000000000000   0.000000000000000   0.000000000000000
disp N   0.000000000000000   0.000000000000000   0.000000000000000
disp Ti   0.000000000000000   0.000000000000000   0.000000000000000
disp O  -0.001111366346617  -0.002987201370413  -0.001351445456145

Real mode 4:
Frequency: 0.009858 Eh [ 2164 cm^-1 ]
Degeneracy: 1 of 1
IR intensity: 1.2730 e^2/amu [ 1241.0 km/mol ]
Displacements:
disp C   0.000000000000000   0.000000000000000   0.000000000000000
disp C   0.000000000000000   0.000000000000000   0.000000000000000
disp C   0.000000000000000   0.000000000000000   0.000000000000000
disp C   0.000000000000000   0.000000000000000   0.000000000000000
disp C   0.000000000000000   0.000000000000000   0.000000000000000
disp C   0.000000000000000   0.000000000000000   0.000000000000000
disp C   0.000000000000000   0.000000000000000   0.000000000000000
disp C   0.000000000000000   0.000000000000000   0.000000000000000
disp C   0.000000000000000   0.000000000000000   0.000000000000000
disp C   0.000000000000000   0.000000000000000   0.000000000000000
disp C   0.000000000000000   0.000000000000000   0.000000000000000
disp C   0.000000000000000   0.000000000000000   0.000000000000000
disp C   0.000000000000000   0.000000000000000   0.000000000000000
disp C   0.000000000000000   0.000000000000000   0.000000000000000
disp C   0.000000000000000   0.000000000000000   0.000000000000000
disp C   0.000000000000000   0.000000000000000   0.000000000000000
disp C   0.000000000000000   0.000000000000000   0.000000000000000
disp C   0.000000000000000   0.000000000000000   0.000000000000000
disp C   0.000000000000000   0.000000000000000   0.000000000000000
disp C   0.000000000000000   0.000000000000000   0.000000000000000
disp C   0.000000000000000   0.000000000000000   0.000000000000000
disp C   0.000000000000000   0.000000000000000   0.000000000000000
disp C   0.000000000000000   0.000000000000000   0.000000000000000
disp C   0.000000000000000   0.000000000000000   0.000000000000000
disp C   0.000000000000000   0.000000000000000   0.000000000000000
disp C   0.000000000000000   0.000000000000000   0.000000000000000
disp C   0.000000000000000   0.000000000000000   0.000000000000000
disp C   0.000000000000000   0.000000000000000   0.000000000000000
disp C   0.000000000000000   0.000000000000000   0.000000000000000
disp C   0.000000000000000   0.000000000000000   0.000000000000000
disp C   0.000000000000000   0.000000000000000   0.000000000000000
disp C   0.000000000000000   0.000000000000000   0.000000000000000
disp C   0.000000000000000   0.000000000000000   0.000000000000000
disp C   0.000000000000000   0.000000000000000   0.000000000000000
disp C   0.000000000000000   0.000000000000000   0.000000000000000
disp C   0.000000000000000   0.000000000000000   0.000000000000000
disp C   0.000000000000000   0.000000000000000   0.000000000000000
disp C   0.000000000000000   0.000000000000000   0.000000000000000
disp C   0.000000000000000   0.000000000000000   0.000000000000000
disp C   0.000000000000000   0.000000000000000   0.000000000000000
disp C   0.000000000000000   0.000000000000000   0.000000000000000
disp C   0.000000000000000   0.000000000000000   0.000000000000000
disp C   0.000000000000000   0.000000000000000   0.000000000000000
disp C   0.000000000000000   0.000000000000000   0.000000000000000
disp C  -0.000002662343848  -0.000042308049956  -0.005155753927114
disp N   0.000000000000000   0.000000000000000   0.000000000000000
disp N   0.000000000000000   0.000000000000000   0.000000000000000
disp N   0.000000000000000   0.000000000000000   0.000000000000000
disp N   0.000000000000000   0.000000000000000   0.000000000000000
disp Ti   0.000000000000000   0.000000000000000   0.000000000000000
disp O   0.000002725875506   0.000026037184776   0.003785515187139

Vibrational free energy components at T = 298 K:
	ZPE:          0.006204
	Evib:         0.007959
	TSvib:        0.003308
	Avib:         0.004651


Dumping 'jdft.n_up' ... done
Dumping 'jdft.n_dn' ... done
Dumping 'jdft.tau_up' ... done
Dumping 'jdft.tau_dn' ... done
Dumping 'jdft.eigenvals' ... done
Dumping 'jdft.eigStats' ... 
	eMin: -2.267849 at state 1 ( [ +0.000000 +0.333333 +0.000000 ] spin 1 )
	HOMO: -0.135672 at state 4 ( [ +0.333333 +0.333333 +0.000000 ] spin 1 )
	mu  : -0.127200
	LUMO: -0.127065 at state 1 ( [ +0.000000 +0.333333 +0.000000 ] spin 1 )
	eMax: +0.022621 at state 9 ( [ +0.000000 +0.000000 +0.000000 ] spin -1 )
	HOMO-LUMO gap: +0.008607
	Optical gap  : +0.010418 at state 2 ( [ +0.000000 -0.333333 +0.000000 ] spin 1 )
Dumping 'jdft.kPts' ... done
Dumping 'jdft.dosUp' ... done.
Dumping 'jdft.dosDn' ... done.
End date and time: Tue Nov 22 23:56:20 2022  (Duration: 0-5:59:11.32)
Done!

PROFILER:             augmentDensityGrid     0.734175 +/-     0.841363 s, 1240 calls,    910.377521 s total
PROFILER:         augmentDensityGridGrad     0.528837 +/-     0.602617 s,  680 calls,    359.608920 s total
PROFILER:        augmentDensitySpherical     0.000582 +/-     0.000788 s, 1240 calls,      0.721557 s total
PROFILER:    augmentDensitySphericalGrad     0.000771 +/-     0.002221 s,  896 calls,      0.690597 s total
PROFILER:                 augmentOverlap     1.665647 +/-     2.262581 s, 2420 calls,   4030.865040 s total
PROFILER:        ColumnBundle::randomize     0.005490 +/-     0.000000 s,    1 calls,      0.005490 s total
PROFILER:                     diagouterI    16.421984 +/-     3.539903 s,  313 calls,   5140.081047 s total
PROFILER:              EdensityAndVscloc     5.410295 +/-     4.888306 s,  311 calls,   1682.601736 s total
PROFILER:                     EnlAndGrad     0.001667 +/-     0.002445 s, 1252 calls,      2.087530 s total
PROFILER:            ExCorrCommunication     0.050848 +/-     0.057482 s, 1945 calls,     98.899668 s total
PROFILER:               ExCorrFunctional     0.024093 +/-     0.004172 s,  333 calls,      8.022942 s total
PROFILER:                    ExCorrTotal     0.572190 +/-     0.138941 s,  333 calls,    190.539405 s total
PROFILER:                   Idag_DiagV_I    27.207478 +/-    12.053568 s,  217 calls,   5904.022818 s total
PROFILER:                    initWeights     1.952334 +/-     0.000000 s,    1 calls,      1.952334 s total
PROFILER:                    inv(matrix)     0.002114 +/-     0.001167 s,  249 calls,      0.526283 s total
PROFILER:            matrix::diagonalize     0.009596 +/-     0.005766 s,  516 calls,      4.951793 s total
PROFILER:                    matrix::set     0.000003 +/-     0.000006 s, 27829 calls,      0.082071 s total
PROFILER:            orthoMatrix(matrix)     0.001758 +/-     0.000833 s,  297 calls,      0.522049 s total
PROFILER:     RadialFunctionR::transform     0.014001 +/-     0.138627 s,  141 calls,      1.974163 s total
PROFILER:                    reduceKmesh     0.000000 +/-     0.000000 s,    1 calls,      0.000000 s total
PROFILER:   VanDerWaalsD3::energyAndGrad     0.030914 +/-     0.001132 s,   15 calls,      0.463708 s total
PROFILER:               WavefunctionDrag    26.470167 +/-     0.300424 s,    7 calls,    185.291172 s total
PROFILER:                            Y*M     0.735169 +/-     0.878685 s, 4558 calls,   3350.898673 s total
PROFILER:                          Y1^Y2     0.736497 +/-     0.897016 s, 3252 calls,   2395.087803 s total

MEMUSAGE:                   ColumnBundle     1.307997 GB
MEMUSAGE:        complexScalarFieldTilde     0.074158 GB
MEMUSAGE:                    IndexArrays     0.023178 GB
MEMUSAGE:                         matrix     0.020559 GB
MEMUSAGE:                           misc     0.050872 GB
MEMUSAGE:                    ScalarField     0.395508 GB
MEMUSAGE:               ScalarFieldTilde     0.262436 GB
MEMUSAGE:                          Total     1.624364 GB
