
*************** JDFTx 1.7.0 (git hash 5f12716a) ***************

Start date and time: Tue Mar 14 13:32:59 2023
Executable /home/nisi6161/jdftx_alpine/build/jdftx with command-line: -i in
Running on hosts (process indices):  c3cpu-a5-u13-4.rc.int.colorado.edu (0-17)
Divided in process groups (process indices):  0 (0)  1 (1)  2 (2)  3 (3)  4 (4)  5 (5)  6 (6)  7 (7)  8 (8)  9 (9)  10 (10)  11 (11)  12 (12)  13 (13)  14 (14)  15 (15)  16 (16)  17 (17)
Resource initialization completed at t[s]:      0.00
Run totals: 18 processes, 64 threads, 0 GPUs


Input parsed successfully to the following command list (including defaults):

basis kpoint-dependent
converge-empty-states yes
coords-type Cartesian
core-overlap-check none
coulomb-interaction Periodic
davidson-band-ratio 1.1
density-of-states Etol 1.000000e-06 Esigma 1.000000e-03 \
		Complete \
	Total \
	OrthoOrbital C 1   s \
	OrthoOrbital C 1   p \
	OrthoOrbital C 1   px \
	OrthoOrbital C 1   py \
	OrthoOrbital C 1   pz \
	OrthoOrbital C 2   s \
	OrthoOrbital C 2   p \
	OrthoOrbital C 2   px \
	OrthoOrbital C 2   py \
	OrthoOrbital C 2   pz \
	OrthoOrbital C 3   s \
	OrthoOrbital C 3   p \
	OrthoOrbital C 3   px \
	OrthoOrbital C 3   py \
	OrthoOrbital C 3   pz \
	OrthoOrbital C 4   s \
	OrthoOrbital C 4   p \
	OrthoOrbital C 4   px \
	OrthoOrbital C 4   py \
	OrthoOrbital C 4   pz \
	OrthoOrbital C 5   s \
	OrthoOrbital C 5   p \
	OrthoOrbital C 5   px \
	OrthoOrbital C 5   py \
	OrthoOrbital C 5   pz \
	OrthoOrbital C 6   s \
	OrthoOrbital C 6   p \
	OrthoOrbital C 6   px \
	OrthoOrbital C 6   py \
	OrthoOrbital C 6   pz \
	OrthoOrbital C 7   s \
	OrthoOrbital C 7   p \
	OrthoOrbital C 7   px \
	OrthoOrbital C 7   py \
	OrthoOrbital C 7   pz \
	OrthoOrbital C 8   s \
	OrthoOrbital C 8   p \
	OrthoOrbital C 8   px \
	OrthoOrbital C 8   py \
	OrthoOrbital C 8   pz \
	OrthoOrbital C 9   s \
	OrthoOrbital C 9   p \
	OrthoOrbital C 9   px \
	OrthoOrbital C 9   py \
	OrthoOrbital C 9   pz \
	OrthoOrbital C 10   s \
	OrthoOrbital C 10   p \
	OrthoOrbital C 10   px \
	OrthoOrbital C 10   py \
	OrthoOrbital C 10   pz \
	OrthoOrbital C 11   s \
	OrthoOrbital C 11   p \
	OrthoOrbital C 11   px \
	OrthoOrbital C 11   py \
	OrthoOrbital C 11   pz \
	OrthoOrbital C 12   s \
	OrthoOrbital C 12   p \
	OrthoOrbital C 12   px \
	OrthoOrbital C 12   py \
	OrthoOrbital C 12   pz \
	OrthoOrbital C 13   s \
	OrthoOrbital C 13   p \
	OrthoOrbital C 13   px \
	OrthoOrbital C 13   py \
	OrthoOrbital C 13   pz \
	OrthoOrbital C 14   s \
	OrthoOrbital C 14   p \
	OrthoOrbital C 14   px \
	OrthoOrbital C 14   py \
	OrthoOrbital C 14   pz \
	OrthoOrbital C 15   s \
	OrthoOrbital C 15   p \
	OrthoOrbital C 15   px \
	OrthoOrbital C 15   py \
	OrthoOrbital C 15   pz \
	OrthoOrbital C 16   s \
	OrthoOrbital C 16   p \
	OrthoOrbital C 16   px \
	OrthoOrbital C 16   py \
	OrthoOrbital C 16   pz \
	OrthoOrbital C 17   s \
	OrthoOrbital C 17   p \
	OrthoOrbital C 17   px \
	OrthoOrbital C 17   py \
	OrthoOrbital C 17   pz \
	OrthoOrbital C 18   s \
	OrthoOrbital C 18   p \
	OrthoOrbital C 18   px \
	OrthoOrbital C 18   py \
	OrthoOrbital C 18   pz \
	OrthoOrbital C 19   s \
	OrthoOrbital C 19   p \
	OrthoOrbital C 19   px \
	OrthoOrbital C 19   py \
	OrthoOrbital C 19   pz \
	OrthoOrbital C 20   s \
	OrthoOrbital C 20   p \
	OrthoOrbital C 20   px \
	OrthoOrbital C 20   py \
	OrthoOrbital C 20   pz \
	OrthoOrbital C 21   s \
	OrthoOrbital C 21   p \
	OrthoOrbital C 21   px \
	OrthoOrbital C 21   py \
	OrthoOrbital C 21   pz \
	OrthoOrbital C 22   s \
	OrthoOrbital C 22   p \
	OrthoOrbital C 22   px \
	OrthoOrbital C 22   py \
	OrthoOrbital C 22   pz \
	OrthoOrbital C 23   s \
	OrthoOrbital C 23   p \
	OrthoOrbital C 23   px \
	OrthoOrbital C 23   py \
	OrthoOrbital C 23   pz \
	OrthoOrbital C 24   s \
	OrthoOrbital C 24   p \
	OrthoOrbital C 24   px \
	OrthoOrbital C 24   py \
	OrthoOrbital C 24   pz \
	OrthoOrbital C 25   s \
	OrthoOrbital C 25   p \
	OrthoOrbital C 25   px \
	OrthoOrbital C 25   py \
	OrthoOrbital C 25   pz \
	OrthoOrbital C 26   s \
	OrthoOrbital C 26   p \
	OrthoOrbital C 26   px \
	OrthoOrbital C 26   py \
	OrthoOrbital C 26   pz \
	OrthoOrbital C 27   s \
	OrthoOrbital C 27   p \
	OrthoOrbital C 27   px \
	OrthoOrbital C 27   py \
	OrthoOrbital C 27   pz \
	OrthoOrbital C 28   s \
	OrthoOrbital C 28   p \
	OrthoOrbital C 28   px \
	OrthoOrbital C 28   py \
	OrthoOrbital C 28   pz \
	OrthoOrbital C 29   s \
	OrthoOrbital C 29   p \
	OrthoOrbital C 29   px \
	OrthoOrbital C 29   py \
	OrthoOrbital C 29   pz \
	OrthoOrbital C 30   s \
	OrthoOrbital C 30   p \
	OrthoOrbital C 30   px \
	OrthoOrbital C 30   py \
	OrthoOrbital C 30   pz \
	OrthoOrbital C 31   s \
	OrthoOrbital C 31   p \
	OrthoOrbital C 31   px \
	OrthoOrbital C 31   py \
	OrthoOrbital C 31   pz \
	OrthoOrbital C 32   s \
	OrthoOrbital C 32   p \
	OrthoOrbital C 32   px \
	OrthoOrbital C 32   py \
	OrthoOrbital C 32   pz \
	OrthoOrbital C 33   s \
	OrthoOrbital C 33   p \
	OrthoOrbital C 33   px \
	OrthoOrbital C 33   py \
	OrthoOrbital C 33   pz \
	OrthoOrbital C 34   s \
	OrthoOrbital C 34   p \
	OrthoOrbital C 34   px \
	OrthoOrbital C 34   py \
	OrthoOrbital C 34   pz \
	OrthoOrbital C 35   s \
	OrthoOrbital C 35   p \
	OrthoOrbital C 35   px \
	OrthoOrbital C 35   py \
	OrthoOrbital C 35   pz \
	OrthoOrbital C 36   s \
	OrthoOrbital C 36   p \
	OrthoOrbital C 36   px \
	OrthoOrbital C 36   py \
	OrthoOrbital C 36   pz \
	OrthoOrbital C 37   s \
	OrthoOrbital C 37   p \
	OrthoOrbital C 37   px \
	OrthoOrbital C 37   py \
	OrthoOrbital C 37   pz \
	OrthoOrbital C 38   s \
	OrthoOrbital C 38   p \
	OrthoOrbital C 38   px \
	OrthoOrbital C 38   py \
	OrthoOrbital C 38   pz \
	OrthoOrbital C 39   s \
	OrthoOrbital C 39   p \
	OrthoOrbital C 39   px \
	OrthoOrbital C 39   py \
	OrthoOrbital C 39   pz \
	OrthoOrbital C 40   s \
	OrthoOrbital C 40   p \
	OrthoOrbital C 40   px \
	OrthoOrbital C 40   py \
	OrthoOrbital C 40   pz \
	OrthoOrbital C 41   s \
	OrthoOrbital C 41   p \
	OrthoOrbital C 41   px \
	OrthoOrbital C 41   py \
	OrthoOrbital C 41   pz \
	OrthoOrbital C 42   s \
	OrthoOrbital C 42   p \
	OrthoOrbital C 42   px \
	OrthoOrbital C 42   py \
	OrthoOrbital C 42   pz \
	OrthoOrbital C 43   s \
	OrthoOrbital C 43   p \
	OrthoOrbital C 43   px \
	OrthoOrbital C 43   py \
	OrthoOrbital C 43   pz \
	OrthoOrbital C 44   s \
	OrthoOrbital C 44   p \
	OrthoOrbital C 44   px \
	OrthoOrbital C 44   py \
	OrthoOrbital C 44   pz \
	OrthoOrbital C 45   s \
	OrthoOrbital C 45   p \
	OrthoOrbital C 45   px \
	OrthoOrbital C 45   py \
	OrthoOrbital C 45   pz \
	OrthoOrbital N 1   s \
	OrthoOrbital N 1   p \
	OrthoOrbital N 1   px \
	OrthoOrbital N 1   py \
	OrthoOrbital N 1   pz \
	OrthoOrbital N 2   s \
	OrthoOrbital N 2   p \
	OrthoOrbital N 2   px \
	OrthoOrbital N 2   py \
	OrthoOrbital N 2   pz \
	OrthoOrbital N 3   s \
	OrthoOrbital N 3   p \
	OrthoOrbital N 3   px \
	OrthoOrbital N 3   py \
	OrthoOrbital N 3   pz \
	OrthoOrbital N 4   s \
	OrthoOrbital N 4   p \
	OrthoOrbital N 4   px \
	OrthoOrbital N 4   py \
	OrthoOrbital N 4   pz \
	OrthoOrbital Ti 1   s \
	OrthoOrbital Ti 1   p \
	OrthoOrbital Ti 1   px \
	OrthoOrbital Ti 1   py \
	OrthoOrbital Ti 1   pz \
	OrthoOrbital Ti 1   d \
	OrthoOrbital Ti 1   dxy \
	OrthoOrbital Ti 1   dyz \
	OrthoOrbital Ti 1   dz2 \
	OrthoOrbital Ti 1   dxz \
	OrthoOrbital Ti 1   dx2-y2 \
	OrthoOrbital O 1   s \
	OrthoOrbital O 1   p \
	OrthoOrbital O 1   px \
	OrthoOrbital O 1   py \
	OrthoOrbital O 1   pz \
	OrthoOrbital O 2   s \
	OrthoOrbital O 2   p \
	OrthoOrbital O 2   px \
	OrthoOrbital O 2   py \
	OrthoOrbital O 2   pz
dump End ElecDensity KEdensity BandEigs EigStats RhoAtom DOS Kpoints
dump Ionic State IonicPositions Lattice EigStats Ecomponents
dump 
dump 
dump 
dump 
dump 
dump 
dump 
dump 
dump-name jdft.$VAR
elec-cutoff 20
elec-eigen-algo Davidson
elec-ex-corr gga-PBE
elec-initial-magnetization 0.000000 no
elec-n-bands 135
elec-smearing Fermi 0.001
electronic-minimize  \
	dirUpdateScheme      FletcherReeves \
	linminMethod         DirUpdateRecommended \
	nIterations          100 \
	history              15 \
	knormThreshold       0 \
	energyDiffThreshold  1e-07 \
	nEnergyDiff          2 \
	alphaTstart          1 \
	alphaTmin            1e-10 \
	updateTestStepSize   yes \
	alphaTreduceFactor   0.1 \
	alphaTincreaseFactor 3 \
	nAlphaAdjustMax      3 \
	wolfeEnergy          0.0001 \
	wolfeGradient        0.9 \
	fdTest               no
exchange-regularization WignerSeitzTruncated
fluid LinearPCM 298.000000 1.013250
fluid-anion F- 0.5 MeanFieldLJ \
	epsBulk 1 \
	pMol 0 \
	epsInf 1 \
	Pvap 0 \
	sigmaBulk 0 \
	Rvdw 2.24877 \
	Res 0 \
	tauNuc 343133
fluid-cation Na+ 0.5 MeanFieldLJ \
	epsBulk 1 \
	pMol 0 \
	epsInf 1 \
	Pvap 0 \
	sigmaBulk 0 \
	Rvdw 2.19208 \
	Res 0 \
	tauNuc 343133
fluid-ex-corr lda-TF lda-PZ
fluid-gummel-loop 10 1.000000e-05
fluid-minimize  \
	dirUpdateScheme      PolakRibiere \
	linminMethod         DirUpdateRecommended \
	nIterations          400 \
	history              15 \
	knormThreshold       1e-11 \
	energyDiffThreshold  0 \
	nEnergyDiff          2 \
	alphaTstart          1 \
	alphaTmin            1e-10 \
	updateTestStepSize   yes \
	alphaTreduceFactor   0.1 \
	alphaTincreaseFactor 3 \
	nAlphaAdjustMax      6 \
	wolfeEnergy          0.0001 \
	wolfeGradient        0.9 \
	fdTest               no
fluid-solvent H2O 55.338 ScalarEOS \
	epsBulk 78.4 \
	pMol 0.92466 \
	epsInf 1.77 \
	Pvap 1.06736e-10 \
	sigmaBulk 4.62e-05 \
	Rvdw 2.61727 \
	Res 1.42 \
	tauNuc 343133 \
	poleEl 15 7 1
forces-output-coords Positions
ion C   0.102941000000000   0.057112000000000   0.012629000000000 1
ion C  -2.291549000000000   3.988942000000002   0.034423000000000 1
ion C  -4.635884000000001   7.989908000000002  43.192860000000010 1
ion C  -6.943541000000001  12.008855000000001  43.169761000000008 1
ion C  -9.271488000000002  16.022771000000002  43.216268000000007 1
ion C   4.782497000000000   0.148002000000000   0.040784000000000 1
ion C   2.394527000000000   4.185709000000001   0.227577000000000 1
ion C  -0.020827000000000   7.988301000000002   0.234277000000000 1
ion C  -2.324675000000001  11.991831000000003   0.041484000000000 1
ion C  -4.619979000000001  16.021295000000002  43.245224000000007 1
ion C   9.477102000000002   0.033837000000000  43.251482000000010 1
ion C   7.179561999999999   4.131821000000001   0.069593000000000 1
ion C   0.079828000000001  15.912355000000002   0.093225000000000 1
ion C   2.442876000000000  19.890132000000005   0.016957000000000 1
ion C  11.854834000000002   3.993015000000001  43.217484000000006 1
ion C   9.564156000000001   7.987988000000001   0.035793000000000 1
ion C   4.771035999999999  15.795863000000004   0.143742000000000 1
ion C   7.095729000000002  19.900597000000005   0.005683000000000 1
ion C  16.498501999999998   3.979123000000000  43.204544000000006 1
ion C  14.190274000000002   8.002476000000001  43.172523000000005 1
ion C  11.877145000000002  12.009012000000004  43.220657000000010 1
ion C   9.475661999999998  15.953473000000004  43.238054000000005 1
ion C   0.090217000000000   2.743476000000000   0.080138000000000 1
ion C  -2.320311000000000   6.659991000000001   0.034778000000000 1
ion C  -4.637990000000001  10.658310000000002  43.195329000000008 1
ion C  -6.945919000000003  14.683584000000002  43.205267000000006 1
ion C  -9.274270000000001  18.711051000000005   0.007054000000000 1
ion C   4.780968000000000   2.867184000000000   0.133304000000000 1
ion C  -0.023294000000000  10.666875000000001   0.238354000000000 1
ion C  -2.299894999999999  14.662957000000002   0.044229000000000 1
ion C  -4.621474000000000  18.707631000000003   0.005149000000000 1
ion C   9.485692999999999   2.716849000000000  43.238267000000008 1
ion C   2.386339000000001  14.473849000000001   0.239525000000000 1
ion C   0.088547999999998  18.598663000000002   0.023763000000000 1
ion C  14.174971000000003   2.636430000000001  43.220541000000004 1
ion C  11.881053000000001   6.664743000000000  43.220089000000009 1
ion C   9.562388000000000  10.682404999999999   0.036672000000000 1
ion C   7.171813000000000  14.535397000000001   0.074400000000000 1
ion C   4.768341000000001  18.514935000000005   0.049760000000000 1
ion C  18.826530000000005   2.644992000000000  43.241273000000007 1
ion C  16.496817000000004   6.653822000000002  43.167692000000010 1
ion C  14.188308000000001  10.674655000000001  43.173014000000009 1
ion C  11.846716000000002  14.680695000000004  43.215828000000009 1
ion C   9.462878000000002  18.636363000000003  43.247389000000005 1
ion C   3.371207000000001   9.313312000000000   8.106685000000002 1
ion N   2.273855999999999  11.867570000000002   0.484202000000000 1
ion N   7.276430000000000  11.937840000000003   0.168608000000000 1
ion N   2.278528000000000   6.791416000000002   0.476995000000000 1
ion N   7.279650000000000   6.729798000000000   0.165959000000000 1
ion Ti   5.030116000000000   9.333072000000001   1.727184000000000 1
ion O   5.510004000000000   9.309300000000002   7.485045000000002 1
ion O   1.228344000000000   9.316995000000002   8.618119000000002 1
ion-species /projects/musgravc/apps/jdftx-1.6.0/build/pseudopotentials/GBRV_v1.5/$ID_pbe_v1.uspp
ion-species /projects/musgravc/apps/jdftx-1.6.0/build/pseudopotentials/GBRV_v1.5/$ID_pbe_v1.2.uspp
ion-species /projects/musgravc/apps/jdftx-1.6.0/build/pseudopotentials/GBRV_v1.5/$ID_pbe_v1.4.uspp
ion-species /projects/musgravc/apps/jdftx-1.6.0/build/pseudopotentials/GBRV_v1.5/$ID_pbe_v1.5.uspp
ion-width Ecut
ionic-minimize  \
	dirUpdateScheme      L-BFGS \
	linminMethod         DirUpdateRecommended \
	nIterations          0 \
	history              15 \
	knormThreshold       0.0001 \
	energyDiffThreshold  1e-06 \
	nEnergyDiff          2 \
	alphaTstart          1 \
	alphaTmin            1e-10 \
	updateTestStepSize   yes \
	alphaTreduceFactor   0.1 \
	alphaTincreaseFactor 3 \
	nAlphaAdjustMax      3 \
	wolfeEnergy          0.0001 \
	wolfeGradient        0.9 \
	fdTest               no
kpoint   0.000000000000   0.000000000000   0.000000000000  1.00000000000000
kpoint-folding 3 3 1 
latt-move-scale 0 0 0
latt-scale 1 1 1 
lattice  \
	  23.436261999999999  -11.733459000000000    0.000000000000000  \
	   0.017994000000000   19.941849000000001    0.000000000000000  \
	   0.000000000000000    0.000000000000000   43.256312999999999 
lattice-minimize  \
	dirUpdateScheme      L-BFGS \
	linminMethod         DirUpdateRecommended \
	nIterations          0 \
	history              15 \
	knormThreshold       0 \
	energyDiffThreshold  1e-06 \
	nEnergyDiff          2 \
	alphaTstart          1 \
	alphaTmin            1e-10 \
	updateTestStepSize   yes \
	alphaTreduceFactor   0.1 \
	alphaTincreaseFactor 3 \
	nAlphaAdjustMax      3 \
	wolfeEnergy          0.0001 \
	wolfeGradient        0.9 \
	fdTest               no
lcao-params 30 1e-06 0.001
pcm-variant CANDLE
spintype z-spin
subspace-rotation-factor 1 yes
symmetries none
symmetry-threshold 0.0001
target-mu -0.1455 no

van-der-waals D3


Applied RMS atom displacement 0 bohrs to make symmetries exact.

---------- Initializing the Grid ----------
R = 
[      23.4363     -11.7335            0  ]
[     0.017994      19.9418            0  ]
[            0            0      43.2563  ]
unit cell volume = 20225.5
G =
[   0.267976   0.157673         -0  ]
[ -0.000241801   0.314933          0  ]
[          0         -0   0.145255  ]
Minimum fftbox size, Smin = [  96  96  176  ]
Chosen fftbox size, S = [  96  96  180  ]

---------- Exchange Correlation functional ----------
Initalized PBE GGA exchange.
Initalized PBE GGA correlation.

---------- Setting up pseudopotentials ----------
Width of ionic core gaussian charges (only for fluid interactions / plotting) set to 0.397384

Reading pseudopotential file '/projects/musgravc/apps/jdftx-1.6.0/build/pseudopotentials/GBRV_v1.5/c_pbe_v1.2.uspp':
  Title: C.  Created by USPP 7.3.6 on 3-2-2014
  Reference state energy: -5.406344.  4 valence electrons in orbitals:
    |200>  occupation: 2  eigenvalue: -0.504890
    |210>  occupation: 2  eigenvalue: -0.194356
  lMax: 1  lLocal: 2  QijEcut: 5
  4 projectors sampled on a log grid with 503 points:
    l: 0  eig: -0.504890  rCut: 1.3
    l: 0  eig: 0.000000  rCut: 1.3
    l: 1  eig: -0.194357  rCut: 1.3
    l: 1  eig: 0.000000  rCut: 1.3
  Partial core density with radius 1.1
  Transforming core density to a uniform radial grid of dG=0.02 with 1464 points.
  Transforming local potential to a uniform radial grid of dG=0.02 with 1464 points.
  Transforming nonlocal projectors to a uniform radial grid of dG=0.02 with 432 points.
  Transforming density augmentations to a uniform radial grid of dG=0.02 with 1464 points.
  Transforming atomic orbitals to a uniform radial grid of dG=0.02 with 432 points.
  Core radius for overlap checks: 1.30 bohrs.

Reading pseudopotential file '/projects/musgravc/apps/jdftx-1.6.0/build/pseudopotentials/GBRV_v1.5/n_pbe_v1.2.uspp':
  Title: N.  Created by USPP 7.3.6 on 3-2-2014
  Reference state energy: -9.763716.  5 valence electrons in orbitals:
    |200>  occupation: 2  eigenvalue: -0.681964
    |210>  occupation: 3  eigenvalue: -0.260726
  lMax: 1  lLocal: 2  QijEcut: 6
  4 projectors sampled on a log grid with 491 points:
    l: 0  eig: -0.681964  rCut: 1.15
    l: 0  eig: 0.000000  rCut: 1.15
    l: 1  eig: -0.260729  rCut: 1.2
    l: 1  eig: 0.500000  rCut: 1.2
  Partial core density with radius 0.8
  Transforming core density to a uniform radial grid of dG=0.02 with 1464 points.
  Transforming local potential to a uniform radial grid of dG=0.02 with 1464 points.
  Transforming nonlocal projectors to a uniform radial grid of dG=0.02 with 432 points.
  Transforming density augmentations to a uniform radial grid of dG=0.02 with 1464 points.
  Transforming atomic orbitals to a uniform radial grid of dG=0.02 with 432 points.
  Core radius for overlap checks: 1.20 bohrs.

Reading pseudopotential file '/projects/musgravc/apps/jdftx-1.6.0/build/pseudopotentials/GBRV_v1.5/ti_pbe_v1.4.uspp':
  Title: Ti.  Created by USPP 7.3.6 on 31-3-15
  Reference state energy: -59.020943.  12 valence electrons in orbitals:
    |300>  occupation: 2  eigenvalue: -2.777623
    |310>  occupation: 6  eigenvalue: -1.894596
    |400>  occupation: 2  eigenvalue: -0.438610
    |320>  occupation: 1  eigenvalue: -0.583119
  lMax: 2  lLocal: 3  QijEcut: 6
  6 projectors sampled on a log grid with 597 points:
    l: 0  eig: -2.777624  rCut: 1.8
    l: 0  eig: -0.438611  rCut: 1.8
    l: 1  eig: -1.894596  rCut: 1.8
    l: 1  eig: 0.500000  rCut: 1.8
    l: 2  eig: -0.583118  rCut: 1.8
    l: 2  eig: 0.150000  rCut: 1.8
  Partial core density with radius 0.8
  Transforming core density to a uniform radial grid of dG=0.02 with 1464 points.
  Transforming local potential to a uniform radial grid of dG=0.02 with 1464 points.
  Transforming nonlocal projectors to a uniform radial grid of dG=0.02 with 432 points.
  Transforming density augmentations to a uniform radial grid of dG=0.02 with 1464 points.
  Transforming atomic orbitals to a uniform radial grid of dG=0.02 with 432 points.
  Core radius for overlap checks: 1.80 bohrs.

Reading pseudopotential file '/projects/musgravc/apps/jdftx-1.6.0/build/pseudopotentials/GBRV_v1.5/o_pbe_v1.2.uspp':
  Title: O.  Created by USPP 7.3.6 on 3-2-2014
  Reference state energy: -15.894388.  6 valence electrons in orbitals:
    |200>  occupation: 2  eigenvalue: -0.878823
    |210>  occupation: 4  eigenvalue: -0.332131
  lMax: 2  lLocal: 2  QijEcut: 6
  5 projectors sampled on a log grid with 511 points:
    l: 0  eig: -0.878823  rCut: 1.25
    l: 0  eig: 0.000000  rCut: 1.25
    l: 1  eig: -0.332132  rCut: 1.25
    l: 1  eig: 0.000000  rCut: 1.25
    l: 2  eig: 1.000000  rCut: 1.25
  Partial core density with radius 0.7
  Transforming core density to a uniform radial grid of dG=0.02 with 1464 points.
  Transforming local potential to a uniform radial grid of dG=0.02 with 1464 points.
  Transforming nonlocal projectors to a uniform radial grid of dG=0.02 with 432 points.
  Transforming density augmentations to a uniform radial grid of dG=0.02 with 1464 points.
  Transforming atomic orbitals to a uniform radial grid of dG=0.02 with 432 points.
  Core radius for overlap checks: 1.25 bohrs.

Initialized 4 species with 52 total atoms.

Folded 1 k-points by 3x3x1 to 9 k-points.

---------- Setting up k-points, bands, fillings ----------
No reducable k-points. 
Computing the number of bands and number of electrons
Calculating initial fillings.
nElectrons: 224.000000   nBands: 135   nStates: 18

----- Setting up reduced wavefunction bases (one per k-point) -----
average nbasis = 86412.556 , ideal nbasis = 86404.907

----- Initializing Supercell corresponding to k-point mesh -----
Lattice vector linear combinations in supercell:
[   3   0   0  ]
[   0   3   0  ]
[   0   0   1  ]
Supercell lattice vectors:
[  70.3088  -35.2004  0  ]
[  0.053982  59.8255  0  ]
[  0  0  43.2563  ]

Initializing DFT-D3 calculator:
	Parameters set for gga-PBE functional
	s6:  1.000  s_r6:  1.217
	s8:  0.722  s_r8:  1.000
	Per-atom parameters loaded for:
	 C:  sqrtQ[a0]:  3.105  Rcov[a0]:  1.417  CN: [ 0.00 0.99 2.00 3.00 3.98 ]
	 N:  sqrtQ[a0]:  2.712  Rcov[a0]:  1.342  CN: [ 0.00 0.99 2.01 2.99 ]
	Ti:  sqrtQ[a0]:  6.288  Rcov[a0]:  2.305  CN: [ 0.00 1.83 3.87 ]
	 O:  sqrtQ[a0]:  2.594  Rcov[a0]:  1.191  CN: [ 0.00 0.99 1.99 ]

Initializing DFT-D2 calculator for fluid / solvation:
	 C:  C6:   30.35 Eh-a0^6  R0: 2.744 a0
	 N:  C6:   21.33 Eh-a0^6  R0: 2.640 a0
	Ti:  C6:  187.33 Eh-a0^6  R0: 2.952 a0
	 O:  C6:   12.14 Eh-a0^6  R0: 2.536 a0

---------- Setting up ewald sum ----------
Optimum gaussian width for ewald sums = 5.626124 bohr.
Real space sum over 567 unit cells with max indices [  4  4  3  ]
Reciprocal space sum over 7803 terms with max indices [  8  8  13  ]

Computing DFT-D3 correction:
# coordination-number C 3.299 3.321 3.334 3.331 3.312 3.290 3.313 3.499 3.327 3.312 3.301 3.334 3.299 3.299 3.321 3.737 3.266 3.301 3.319 3.332 3.326 3.303 3.299 3.327 3.334 3.319 3.299 3.266 3.500 3.321 3.301 3.303 3.313 3.299 3.312 3.326 3.737 3.335 3.290 3.312 3.331 3.332 3.321 3.301 2.021
# coordination-number N 3.165 3.183 3.164 3.182
# coordination-number Ti 5.650
# coordination-number O 1.056 1.014
# diagonal-C6 C 24.29 24.07 23.93 23.97 24.16 24.38 24.15 21.66 24.00 24.16 24.27 23.93 24.29 24.29 24.07 19.06 24.58 24.27 24.09 23.95 24.02 24.25 24.29 24.00 23.93 24.09 24.29 24.58 21.65 24.07 24.27 24.25 24.15 24.29 24.17 24.02 19.06 23.92 24.38 24.16 23.97 23.95 24.07 24.27 29.45
# diagonal-C6 N 15.60 15.60 15.60 15.60
# diagonal-C6 Ti 321.59
# diagonal-C6 O 12.77 12.80
EvdW_6 =   -0.038232
EvdW_8 =   -0.030608

---------- Allocating electronic variables ----------
Initializing wave functions:  linear combination of atomic orbitals
C pseudo-atom occupations:   s ( 2 )  p ( 2 )
N pseudo-atom occupations:   s ( 2 )  p ( 3 )
Ti pseudo-atom occupations:   s ( 2 0 )  p ( 6 )  d ( 4 )
O pseudo-atom occupations:   s ( 2 )  p ( 4 )
	FillingsUpdate:  mu: -0.145500000  nElectrons: 224.000000  magneticMoment: [ Abs: 0.00460  Tot: +0.00001 ]
LCAOMinimize: Iter:   0  G: -349.8863939929440789  |grad|_K:  3.068e-03  alpha:  1.000e+00
	FillingsUpdate:  mu: -0.145500000  nElectrons: 224.000000  magneticMoment: [ Abs: 0.00452  Tot: +0.00000 ]
LCAOMinimize: Iter:   1  G: -350.2957600131409208  |grad|_K:  1.800e-03  alpha:  8.238e-02  linmin: -1.303e-01  cgtest:  1.342e+00  t[s]:    394.06
LCAOMinimize: Encountered beta<0, resetting CG.
LCAOMinimize: 	Predicted alpha/alphaT>3.000000, increasing alphaT to 2.471250e-01.
	FillingsUpdate:  mu: -0.145500000  nElectrons: 224.000000  magneticMoment: [ Abs: 0.00458  Tot: +0.00023 ]
LCAOMinimize: Iter:   2  G: -350.3250763804630878  |grad|_K:  8.271e-03  alpha:  4.770e-01  linmin:  1.433e-01  cgtest: -1.940e-01  t[s]:    589.52
LCAOMinimize: 	Bad step direction: g.d > 0.
LCAOMinimize: 	Undoing step.
LCAOMinimize: 	Step failed: resetting search direction.
	FillingsUpdate:  mu: -0.145500000  nElectrons: 224.000000  magneticMoment: [ Abs: 0.00458  Tot: +0.00023 ]
LCAOMinimize: Iter:   3  G: -350.3250763804630878  |grad|_K:  8.271e-03  alpha:  0.000e+00
	FillingsUpdate:  mu: -0.145500000  nElectrons: 224.000000  magneticMoment: [ Abs: 0.00457  Tot: -0.00001 ]
LCAOMinimize: Iter:   4  G: -350.8696095966402027  |grad|_K:  1.907e-03  alpha:  2.291e-01  linmin:  1.061e-01  cgtest: -3.801e+00  t[s]:    859.01
LCAOMinimize: 	Bad step direction: g.d > 0.
LCAOMinimize: 	Undoing step.
LCAOMinimize: 	Step failed: resetting search direction.
	FillingsUpdate:  mu: -0.145500000  nElectrons: 224.000000  magneticMoment: [ Abs: 0.00457  Tot: -0.00001 ]
LCAOMinimize: Iter:   5  G: -350.8696095966402027  |grad|_K:  1.907e-03  alpha:  0.000e+00
LCAOMinimize: 	Step increased G by 1.488593e+01, reducing alpha to 4.401373e-02.
	FillingsUpdate:  mu: -0.145500000  nElectrons: 224.000000  magneticMoment: [ Abs: 0.00458  Tot: -0.00000 ]
LCAOMinimize: Iter:   6  G: -350.9979351651580259  |grad|_K:  1.694e-03  alpha:  4.401e-02  linmin: -1.588e-01  cgtest:  9.346e-01  t[s]:   1245.61
LCAOMinimize: Encountered beta<0, resetting CG.
LCAOMinimize: 	Predicted alpha/alphaT>3.000000, increasing alphaT to 1.320412e-01.
LCAOMinimize: 	Wrong curvature in test step, increasing alphaT to 3.961236e-01.
	FillingsUpdate:  mu: -0.145500000  nElectrons: 224.000000  magneticMoment: [ Abs: 0.00459  Tot: -0.00000 ]
LCAOMinimize: Iter:   7  G: -351.3316048301603018  |grad|_K:  1.405e-03  alpha: -1.140e+00  linmin: -1.854e-01  cgtest:  5.685e-01  t[s]:   1437.12
	FillingsUpdate:  mu: -0.145500000  nElectrons: 224.000000  magneticMoment: [ Abs: 0.00460  Tot: -0.00000 ]
LCAOMinimize: Iter:   8  G: -351.4385704275093758  |grad|_K:  1.243e-03  alpha:  4.275e-02  linmin: -1.949e-01  cgtest:  7.264e-01  t[s]:   1591.81
LCAOMinimize: 	Predicted alpha/alphaT>3.000000, increasing alphaT to 1.282493e-01.
	FillingsUpdate:  mu: -0.145500000  nElectrons: 224.000000  magneticMoment: [ Abs: 0.00461  Tot: -0.00000 ]
LCAOMinimize: Iter:   9  G: -351.4708935220679678  |grad|_K:  1.111e-03  alpha:  1.913e-02  linmin: -1.996e-01  cgtest:  8.753e-01  t[s]:   1787.63
LCAOMinimize: 	Predicted alpha/alphaT>3.000000, increasing alphaT to 5.739030e-02.
LCAOMinimize: 	Predicted alpha/alphaT>3.000000, increasing alphaT to 1.721709e-01.
	FillingsUpdate:  mu: -0.145500000  nElectrons: 224.000000  magneticMoment: [ Abs: 0.00463  Tot: -0.00000 ]
LCAOMinimize: Iter:  10  G: -351.4943392450197734  |grad|_K:  9.385e-04  alpha:  2.257e-02  linmin: -1.979e-01  cgtest:  8.850e-01  t[s]:   2024.67
LCAOMinimize: Encountered beta<0, resetting CG.
LCAOMinimize: 	Predicted alpha/alphaT>3.000000, increasing alphaT to 6.771965e-02.
	FillingsUpdate:  mu: -0.145500000  nElectrons: 224.000000  magneticMoment: [ Abs: 0.00475  Tot: -0.00010 ]
LCAOMinimize: Iter:  11  G: -351.5110779378677535  |grad|_K:  1.047e-03  alpha:  8.824e-02  linmin:  1.776e-01  cgtest: -6.021e-01  t[s]:   2221.26
LCAOMinimize: 	Bad step direction: g.d > 0.
LCAOMinimize: 	Undoing step.
LCAOMinimize: 	Step failed: resetting search direction.
	FillingsUpdate:  mu: -0.145500000  nElectrons: 224.000000  magneticMoment: [ Abs: 0.00475  Tot: -0.00010 ]
LCAOMinimize: Iter:  12  G: -351.5110779378677535  |grad|_K:  1.047e-03  alpha:  0.000e+00
	FillingsUpdate:  mu: -0.145500000  nElectrons: 224.000000  magneticMoment: [ Abs: 0.00471  Tot: -0.00004 ]
LCAOMinimize: Iter:  13  G: -351.5258130319788847  |grad|_K:  1.658e-04  alpha:  4.595e-02  linmin:  6.729e-02  cgtest: -9.861e-01  t[s]:   2492.42
	FillingsUpdate:  mu: -0.145500000  nElectrons: 224.000000  magneticMoment: [ Abs: 0.00475  Tot: -0.00005 ]
LCAOMinimize: Iter:  14  G: -351.5263338878860395  |grad|_K:  2.037e-04  alpha:  1.377e-01  linmin: -4.384e-03  cgtest:  9.101e-01  t[s]:   2647.74
	FillingsUpdate:  mu: -0.145500000  nElectrons: 224.000000  magneticMoment: [ Abs: 0.00479  Tot: -0.00007 ]
LCAOMinimize: Iter:  15  G: -351.5272155452938705  |grad|_K:  4.917e-05  alpha:  4.279e-02  linmin: -1.062e-01  cgtest:  5.660e-01  t[s]:   2802.84
LCAOMinimize: Encountered beta<0, resetting CG.
LCAOMinimize: 	Predicted alpha/alphaT>3.000000, increasing alphaT to 1.283815e-01.
	FillingsUpdate:  mu: -0.145500000  nElectrons: 224.000000  magneticMoment: [ Abs: 0.00488  Tot: -0.00011 ]
LCAOMinimize: Iter:  16  G: -351.5273925643768393  |grad|_K:  7.061e-05  alpha:  1.733e-01  linmin: -5.886e-03  cgtest:  8.091e-02  t[s]:   2997.54
	FillingsUpdate:  mu: -0.145500000  nElectrons: 224.000000  magneticMoment: [ Abs: 0.00509  Tot: -0.00020 ]
LCAOMinimize: Iter:  17  G: -351.5277069450005456  |grad|_K:  1.877e-05  alpha:  1.441e-01  linmin: -2.109e-02  cgtest: -3.720e-01  t[s]:   3152.64
	FillingsUpdate:  mu: -0.145500000  nElectrons: 224.000000  magneticMoment: [ Abs: 0.00521  Tot: -0.00026 ]
LCAOMinimize: Iter:  18  G: -351.5277242854686506  |grad|_K:  1.604e-05  alpha:  1.090e-01  linmin: -2.486e-02  cgtest:  1.518e-01  t[s]:   3307.80
	FillingsUpdate:  mu: -0.145500000  nElectrons: 224.000000  magneticMoment: [ Abs: 0.00545  Tot: -0.00036 ]
LCAOMinimize: Iter:  19  G: -351.5277439210526609  |grad|_K:  1.194e-05  alpha:  1.415e-01  linmin: -1.376e-02  cgtest: -2.040e-01  t[s]:   3463.05
	FillingsUpdate:  mu: -0.145500000  nElectrons: 224.000000  magneticMoment: [ Abs: 0.00566  Tot: -0.00045 ]
LCAOMinimize: Iter:  20  G: -351.5277486971220924  |grad|_K:  4.662e-06  alpha:  7.856e-02  linmin: -4.321e-02  cgtest:  1.784e-01  t[s]:   3618.14
LCAOMinimize: 	Wrong curvature in test step, increasing alphaT to 2.356847e-01.
	FillingsUpdate:  mu: -0.145500000  nElectrons: 224.000000  magneticMoment: [ Abs: 0.00581  Tot: -0.00051 ]
LCAOMinimize: Iter:  21  G: -351.5277505555857829  |grad|_K:  3.540e-06  alpha: -2.842e-01  linmin: -1.571e-01  cgtest:  8.643e-01  t[s]:   3770.43
LCAOMinimize: Encountered beta<0, resetting CG.
	FillingsUpdate:  mu: -0.145500000  nElectrons: 224.000000  magneticMoment: [ Abs: 0.00670  Tot: -0.00084 ]
LCAOMinimize: Iter:  22  G: -351.5277536803400267  |grad|_K:  6.491e-06  alpha:  4.595e-01  linmin:  1.212e-02  cgtest: -1.336e-01  t[s]:   3925.23
	FillingsUpdate:  mu: -0.145500000  nElectrons: 224.000000  magneticMoment: [ Abs: 0.00730  Tot: -0.00105 ]
LCAOMinimize: Iter:  23  G: -351.5277557495890051  |grad|_K:  2.588e-06  alpha:  5.818e-02  linmin:  6.395e-02  cgtest:  3.314e-01  t[s]:   4080.07
LCAOMinimize: 	Wrong curvature in test step, increasing alphaT to 1.745469e-01.
	FillingsUpdate:  mu: -0.145500000  nElectrons: 224.000000  magneticMoment: [ Abs: 0.00756  Tot: -0.00114 ]
LCAOMinimize: Iter:  24  G: -351.5277560659247911  |grad|_K:  2.022e-06  alpha: -1.451e+00  linmin: -2.373e-01  cgtest:  9.610e-01  t[s]:   4232.26
LCAOMinimize: Encountered beta<0, resetting CG.
	FillingsUpdate:  mu: -0.145500000  nElectrons: 224.000000  magneticMoment: [ Abs: 0.00846  Tot: -0.00145 ]
LCAOMinimize: Iter:  25  G: -351.5277561492159748  |grad|_K:  1.458e-06  alpha:  1.975e-01  linmin: -3.410e-02  cgtest:  2.599e-01  t[s]:   4387.05
LCAOMinimize: Converged (|Delta G|<1.000000e-06 for 2 iters).
----- createFluidSolver() ----- (Fluid-side solver setup)
   Initializing fluid molecule 'H2O'
     Initializing site 'O'
       Electron density: proportional to exp(-r/0.36935)*erfc((r-0.51523)/0.36823) with norm 6.826
       Charge density: gaussian nuclear width 0.478731 with net site charge 0.826
       Polarizability: cuspless exponential with width 0.32 and norm 3.73
       Hard sphere radius: 2.57003 bohrs
       Positions in reference frame:
         [ +0.000000 +0.000000 +0.000000 ]
     Initializing site 'H'
       Electron density: proportional to exp(-r/0.34641)*erfc((r-0)/0.390882) with norm 0.587
       Charge density: gaussian nuclear width 0.377945 with net site charge -0.413
       Polarizability: cuspless exponential with width 0.39 and norm 3.3
       Positions in reference frame:
         [ +0.000000 -1.441945 +1.122523 ]
         [ +0.000000 +1.441945 +1.122523 ]
     Net charge: 0   dipole magnitude: 0.927204
     Initializing spherical shell mfKernel with radius 2.61727 Bohr
     deltaS corrections:
       site 'O': -7.54299
       site 'H': -6.83917
   Initializing fluid molecule 'Na+'
     Initializing site 'Na'
       Electron density: proportional to exp(-r/0.19682)*erfc((r-0.71491)/0.41314) with norm 8.1383
       Charge density: gaussian nuclear width 0.365347 with net site charge -1
       Hard sphere radius: 1.86327 bohrs
       Positions in reference frame:
         [ +0.000000 +0.000000 +0.000000 ]
     Net charge: -1   dipole magnitude: 0
     Initializing gaussian mfKernel with width: 1.55004 Bohr
     deltaS corrections:
       site 'Na': -22.3555
   Initializing fluid molecule 'F-'
     Initializing site 'F'
       Electron density: proportional to exp(-r/0.38886)*erfc((r-0)/0.438782) with norm 8
       Charge density: gaussian nuclear width 0.374796 with net site charge 1
       Hard sphere radius: 2.39995 bohrs
       Positions in reference frame:
         [ +0.000000 +0.000000 +0.000000 ]
     Net charge: 1   dipole magnitude: 0
     Initializing gaussian mfKernel with width: 1.59012 Bohr
     deltaS corrections:
       site 'F': -9.04335

Correction to mu due to finite nuclear width = -0.0109887
   Cavity determined by nc: 0.00142 and sigma: 0.707107
   Nonlocal vdW cavity from gaussian model electron density with norm = 8 and sigma = 0.993594 bohr
   Charge asymmetry in cavity with sensitivity pCavity = 36.5 e-bohr/Eh
   Electrostatic cavity expanded by eta = 1.46 bohrs
   Weighted density cavitation model constrained by Nbulk: 0.0049383 bohr^-3, Pvap: 3.14029 kPa, Rvdw: 2.61727 bohr and sigmaBulk: 4.62e-05 Eh/bohr^2 at T: 298 K.
   Weighted density dispersion model using vdW pair potentials with single solvent site with sqrtC6eff: 0.77 SI.


---- Citations for features of the code used in this run ----

   Software package:
      R. Sundararaman, K. Letchworth-Weaver, K.A. Schwarz, D. Gunceler, Y. Ozhabes and T.A. Arias, 'JDFTx: software for joint density-functional theory', SoftwareX 6, 278 (2017)

   gga-PBE exchange-correlation functional:
      J.P. Perdew, K. Burke and M. Ernzerhof, Phys. Rev. Lett. 77, 3865 (1996)

   Pseudopotentials:
      KF Garrity, JW Bennett, KM Rabe and D Vanderbilt, Comput. Mater. Sci. 81, 446 (2014)

   DFT-D3 dispersion correction:
      S. Grimme, J. Antony, S. Ehrlich and H. Krieg, J. Chem. Phys. 132, 154104 (2010)

   DFT-D2 dispersion correction:
      S. Grimme, J. Comput. Chem. 27, 1787 (2006)

   Charge-asymmetric nonlocally-determined local-electric (CANDLE) solvation model:
      R. Sundararaman and W.A. Goddard III, J. Chem. Phys. 142, 064107 (2015)

   Total energy minimization with Auxiliary Hamiltonian:
      C. Freysoldt, S. Boeck, and J. Neugebauer, Phys. Rev. B 79, 241103(R) (2009)

   Grand-canonical (fixed-potential) DFT:
      R. Sundararaman, W. A. Goddard III and T. A. Arias, J. Chem. Phys. 146, 114104 (2017)

   Linear-tetrahedron sampling for density of states:
      G. Lehmann and M. Taut, Phys. status solidi (b) 54, 469 (1972)

This list may not be complete. Please suggest additional citations or
report any other bugs at https://github.com/shankar1729/jdftx/issues

Initialization completed successfully at t[s]:   4408.21


Computing DFT-D3 correction:
# coordination-number C 3.299 3.321 3.334 3.331 3.312 3.290 3.313 3.499 3.327 3.312 3.301 3.334 3.299 3.299 3.321 3.737 3.266 3.301 3.319 3.332 3.326 3.303 3.299 3.327 3.334 3.319 3.299 3.266 3.500 3.321 3.301 3.303 3.313 3.299 3.312 3.326 3.737 3.335 3.290 3.312 3.331 3.332 3.321 3.301 2.021
# coordination-number N 3.165 3.183 3.164 3.182
# coordination-number Ti 5.650
# coordination-number O 1.056 1.014
# diagonal-C6 C 24.29 24.07 23.93 23.97 24.16 24.38 24.15 21.66 24.00 24.16 24.27 23.93 24.29 24.29 24.07 19.06 24.58 24.27 24.09 23.95 24.02 24.25 24.29 24.00 23.93 24.09 24.29 24.58 21.65 24.07 24.27 24.25 24.15 24.29 24.17 24.02 19.06 23.92 24.38 24.16 23.97 23.95 24.07 24.27 29.45
# diagonal-C6 N 15.60 15.60 15.60 15.60
# diagonal-C6 Ti 321.59
# diagonal-C6 O 12.77 12.80
EvdW_6 =   -0.038232
EvdW_8 =   -0.030608
Fluid solver invoked on fresh (random / LCAO) wavefunctions
Running a vacuum solve first:

-------- Initial electronic minimization -----------
	FillingsUpdate:  mu: -0.176685020  nElectrons: 224.000000  magneticMoment: [ Abs: 0.00846  Tot: -0.00145 ]
ElecMinimize: Iter:   0  G: -351.527806770794371  |grad|_K:  1.463e-04  alpha:  1.000e+00
	FillingsUpdate:  mu: -0.146845525  nElectrons: 224.000000  magneticMoment: [ Abs: 0.01062  Tot: -0.00271 ]
	SubspaceRotationAdjust: set factor to 0.812
ElecMinimize: Iter:   1  G: -354.509867420047897  |grad|_K:  6.779e-05  alpha:  6.730e-01  linmin:  8.073e-05  t[s]:   4660.18
ElecMinimize: 	Step increased G by 2.656175e-02, reducing alpha to 9.311917e-03.
	FillingsUpdate:  mu: -0.129247855  nElectrons: 224.000000  magneticMoment: [ Abs: 0.01196  Tot: -0.00369 ]
	SubspaceRotationAdjust: set factor to 0.826
ElecMinimize: Iter:   2  G: -354.526638038530450  |grad|_K:  5.702e-05  alpha:  9.312e-03  linmin: -2.987e-03  t[s]:   4916.68
ElecMinimize: 	Predicted alpha/alphaT>3.000000, increasing alphaT to 2.793575e-02.
	FillingsUpdate:  mu: -0.051266016  nElectrons: 224.000000  magneticMoment: [ Abs: 0.02382  Tot: -0.01479 ]
	SubspaceRotationAdjust: set factor to 0.512
ElecMinimize: Iter:   3  G: -354.565453872151409  |grad|_K:  7.013e-05  alpha:  3.628e-02  linmin:  2.037e-03  t[s]:   5112.92
ElecMinimize: 	Bad step direction: g.d > 0.
ElecMinimize: 	Undoing step.
ElecMinimize: 	Step failed: resetting search direction.
	FillingsUpdate:  mu: -0.051266016  nElectrons: 224.000000  magneticMoment: [ Abs: 0.02382  Tot: -0.01479 ]
	SubspaceRotationAdjust: set factor to 0.405
ElecMinimize: Iter:   4  G: -354.565453872150840  |grad|_K:  5.954e-05  alpha:  0.000e+00
	FillingsUpdate:  mu: -0.090465414  nElectrons: 224.000000  magneticMoment: [ Abs: 0.01779  Tot: -0.00730 ]
	SubspaceRotationAdjust: set factor to 0.299
ElecMinimize: Iter:   5  G: -354.619913275524141  |grad|_K:  3.532e-05  alpha:  6.713e-02  linmin: -1.383e-03  t[s]:   5382.02
ElecMinimize: 	Predicted alpha/alphaT>3.000000, increasing alphaT to 2.013794e-01.
	FillingsUpdate:  mu: -0.126383458  nElectrons: 224.000000  magneticMoment: [ Abs: 0.02079  Tot: -0.00488 ]
	SubspaceRotationAdjust: set factor to 0.251
ElecMinimize: Iter:   6  G: -354.773365276960305  |grad|_K:  2.692e-05  alpha:  4.828e-01  linmin: -1.102e-04  t[s]:   5576.66
	FillingsUpdate:  mu: -0.060249142  nElectrons: 224.000000  magneticMoment: [ Abs: 0.03439  Tot: -0.01383 ]
	SubspaceRotationAdjust: set factor to 0.244
ElecMinimize: Iter:   7  G: -354.802634690615207  |grad|_K:  1.749e-05  alpha:  1.388e-01  linmin: -6.909e-04  t[s]:   5731.07
	FillingsUpdate:  mu: -0.050674050  nElectrons: 224.000000  magneticMoment: [ Abs: 0.06059  Tot: -0.03451 ]
	SubspaceRotationAdjust: set factor to 0.154
ElecMinimize: Iter:   8  G: -354.825401828739132  |grad|_K:  2.751e-05  alpha:  3.005e-01  linmin:  3.789e-04  t[s]:   5885.52
	FillingsUpdate:  mu: -0.047901137  nElectrons: 224.000000  magneticMoment: [ Abs: 0.07701  Tot: -0.04455 ]
	SubspaceRotationAdjust: set factor to 0.103
	SubspaceRotationAdjust: resetting CG because factor has changed by 0.102806
ElecMinimize: 	State modified externally: resetting search direction.
ElecMinimize: Iter:   9  G: -354.839538671397520  |grad|_K:  1.595e-05  alpha:  1.049e-01
	FillingsUpdate:  mu: -0.061314904  nElectrons: 224.000000  magneticMoment: [ Abs: 0.06739  Tot: -0.02959 ]
	SubspaceRotationAdjust: set factor to 0.0537
ElecMinimize: Iter:  10  G: -354.854742218903596  |grad|_K:  6.155e-06  alpha:  2.750e-01  linmin: -2.355e-03  t[s]:   6282.99
	FillingsUpdate:  mu: -0.057621941  nElectrons: 224.000000  magneticMoment: [ Abs: 0.07488  Tot: -0.03160 ]
	SubspaceRotationAdjust: set factor to 0.0585
ElecMinimize: Iter:  11  G: -354.858689441245758  |grad|_K:  4.210e-06  alpha:  4.614e-01  linmin: -9.541e-06  t[s]:   6437.51
	FillingsUpdate:  mu: -0.062115089  nElectrons: 224.000000  magneticMoment: [ Abs: 0.09104  Tot: -0.03721 ]
	SubspaceRotationAdjust: set factor to 0.0648
ElecMinimize: Iter:  12  G: -354.862140221120967  |grad|_K:  2.857e-06  alpha:  9.259e-01  linmin:  2.590e-05  t[s]:   6593.28
	FillingsUpdate:  mu: -0.057590388  nElectrons: 224.000000  magneticMoment: [ Abs: 0.10961  Tot: -0.04663 ]
	SubspaceRotationAdjust: set factor to 0.0729
ElecMinimize: Iter:  13  G: -354.863456390086753  |grad|_K:  2.395e-06  alpha:  7.705e-01  linmin:  1.266e-05  t[s]:   6747.48
	FillingsUpdate:  mu: -0.055993123  nElectrons: 224.000000  magneticMoment: [ Abs: 0.13199  Tot: -0.05781 ]
	SubspaceRotationAdjust: set factor to 0.0904
ElecMinimize: Iter:  14  G: -354.864288193694165  |grad|_K:  1.805e-06  alpha:  6.927e-01  linmin:  8.702e-06  t[s]:   6902.31
	FillingsUpdate:  mu: -0.060924275  nElectrons: 224.000000  magneticMoment: [ Abs: 0.16261  Tot: -0.07121 ]
	SubspaceRotationAdjust: set factor to 0.101
ElecMinimize: Iter:  15  G: -354.864908179874021  |grad|_K:  1.931e-06  alpha:  9.059e-01  linmin: -1.074e-05  t[s]:   7057.21
	FillingsUpdate:  mu: -0.055570737  nElectrons: 224.000000  magneticMoment: [ Abs: 0.23070  Tot: -0.11089 ]
	SubspaceRotationAdjust: set factor to 0.106
ElecMinimize: Iter:  16  G: -354.865670741410781  |grad|_K:  2.440e-06  alpha:  9.684e-01  linmin:  1.309e-05  t[s]:   7211.54
	FillingsUpdate:  mu: -0.056744042  nElectrons: 224.000000  magneticMoment: [ Abs: 0.31197  Tot: -0.17184 ]
	SubspaceRotationAdjust: set factor to 0.132
ElecMinimize: Iter:  17  G: -354.866560146394249  |grad|_K:  1.924e-06  alpha:  6.635e-01  linmin: -3.086e-05  t[s]:   7366.62
	FillingsUpdate:  mu: -0.058742240  nElectrons: 224.000000  magneticMoment: [ Abs: 0.36204  Tot: -0.22300 ]
	SubspaceRotationAdjust: set factor to 0.159
ElecMinimize: Iter:  18  G: -354.866996361387578  |grad|_K:  1.757e-06  alpha:  5.145e-01  linmin:  2.479e-05  t[s]:   7521.37
	FillingsUpdate:  mu: -0.059277782  nElectrons: 224.000000  magneticMoment: [ Abs: 0.40183  Tot: -0.26642 ]
	SubspaceRotationAdjust: set factor to 0.161
ElecMinimize: Iter:  19  G: -354.867207705205999  |grad|_K:  1.693e-06  alpha:  3.011e-01  linmin: -6.141e-05  t[s]:   7676.18
	FillingsUpdate:  mu: -0.059832026  nElectrons: 224.000000  magneticMoment: [ Abs: 0.45332  Tot: -0.31872 ]
	SubspaceRotationAdjust: set factor to 0.148
ElecMinimize: Iter:  20  G: -354.867382537419189  |grad|_K:  1.861e-06  alpha:  2.747e-01  linmin:  6.051e-05  t[s]:   7830.15
	FillingsUpdate:  mu: -0.060439859  nElectrons: 224.000000  magneticMoment: [ Abs: 0.50855  Tot: -0.37363 ]
	SubspaceRotationAdjust: set factor to 0.14
ElecMinimize: Iter:  21  G: -354.867523447414612  |grad|_K:  2.009e-06  alpha:  1.946e-01  linmin:  4.000e-06  t[s]:   7984.48
	FillingsUpdate:  mu: -0.060995442  nElectrons: 224.000000  magneticMoment: [ Abs: 0.57069  Tot: -0.43550 ]
	SubspaceRotationAdjust: set factor to 0.116
ElecMinimize: Iter:  22  G: -354.867662746729081  |grad|_K:  2.053e-06  alpha:  1.616e-01  linmin:  3.316e-05  t[s]:   8138.91
	FillingsUpdate:  mu: -0.061354248  nElectrons: 224.000000  magneticMoment: [ Abs: 0.63270  Tot: -0.49752 ]
	SubspaceRotationAdjust: set factor to 0.0884
ElecMinimize: Iter:  23  G: -354.867780591159828  |grad|_K:  1.997e-06  alpha:  1.343e-01  linmin:  2.791e-05  t[s]:   8292.70
	FillingsUpdate:  mu: -0.061531699  nElectrons: 224.000000  magneticMoment: [ Abs: 0.70211  Tot: -0.56709 ]
	SubspaceRotationAdjust: set factor to 0.0697
ElecMinimize: Iter:  24  G: -354.867895681650907  |grad|_K:  1.949e-06  alpha:  1.399e-01  linmin:  5.220e-05  t[s]:   8446.89
	FillingsUpdate:  mu: -0.061562239  nElectrons: 224.000000  magneticMoment: [ Abs: 0.77839  Tot: -0.64381 ]
	SubspaceRotationAdjust: set factor to 0.0581
ElecMinimize: Iter:  25  G: -354.868008508250739  |grad|_K:  1.921e-06  alpha:  1.457e-01  linmin:  4.490e-05  t[s]:   8601.56
	FillingsUpdate:  mu: -0.061544546  nElectrons: 224.000000  magneticMoment: [ Abs: 0.85563  Tot: -0.72093 ]
	SubspaceRotationAdjust: set factor to 0.047
ElecMinimize: Iter:  26  G: -354.868115148134450  |grad|_K:  1.832e-06  alpha:  1.405e-01  linmin:  2.523e-05  t[s]:   8755.53
	FillingsUpdate:  mu: -0.061564240  nElectrons: 224.000000  magneticMoment: [ Abs: 0.92789  Tot: -0.79192 ]
	SubspaceRotationAdjust: set factor to 0.0371
ElecMinimize: Iter:  27  G: -354.868211441508947  |grad|_K:  1.692e-06  alpha:  1.378e-01  linmin:  7.327e-06  t[s]:   8910.15
	FillingsUpdate:  mu: -0.061679673  nElectrons: 224.000000  magneticMoment: [ Abs: 0.99599  Tot: -0.85739 ]
	SubspaceRotationAdjust: set factor to 0.0315
ElecMinimize: Iter:  28  G: -354.868301516546751  |grad|_K:  1.592e-06  alpha:  1.504e-01  linmin: -4.805e-06  t[s]:   9064.51
	FillingsUpdate:  mu: -0.061951076  nElectrons: 224.000000  magneticMoment: [ Abs: 1.06213  Tot: -0.91918 ]
	SubspaceRotationAdjust: set factor to 0.0288
ElecMinimize: Iter:  29  G: -354.868390674837372  |grad|_K:  1.539e-06  alpha:  1.675e-01  linmin: -1.882e-05  t[s]:   9219.78
	FillingsUpdate:  mu: -0.062380940  nElectrons: 224.000000  magneticMoment: [ Abs: 1.12205  Tot: -0.97348 ]
	SubspaceRotationAdjust: set factor to 0.026
ElecMinimize: Iter:  30  G: -354.868475647496894  |grad|_K:  1.469e-06  alpha:  1.699e-01  linmin: -4.215e-05  t[s]:   9374.44
	FillingsUpdate:  mu: -0.062887956  nElectrons: 224.000000  magneticMoment: [ Abs: 1.17505  Tot: -1.01966 ]
	SubspaceRotationAdjust: set factor to 0.0251
ElecMinimize: Iter:  31  G: -354.868556509491555  |grad|_K:  1.443e-06  alpha:  1.764e-01  linmin: -6.099e-05  t[s]:   9528.73
	FillingsUpdate:  mu: -0.063401403  nElectrons: 224.000000  magneticMoment: [ Abs: 1.22791  Tot: -1.06336 ]
	SubspaceRotationAdjust: set factor to 0.0286
ElecMinimize: Iter:  32  G: -354.868645765131305  |grad|_K:  1.531e-06  alpha:  2.009e-01  linmin: -7.752e-05  t[s]:   9683.10
	FillingsUpdate:  mu: -0.063835294  nElectrons: 224.000000  magneticMoment: [ Abs: 1.28279  Tot: -1.10551 ]
	SubspaceRotationAdjust: set factor to 0.0325
ElecMinimize: Iter:  33  G: -354.868753145511789  |grad|_K:  1.614e-06  alpha:  2.129e-01  linmin: -1.078e-04  t[s]:   9836.87
	FillingsUpdate:  mu: -0.064067533  nElectrons: 224.000000  magneticMoment: [ Abs: 1.33200  Tot: -1.13887 ]
	SubspaceRotationAdjust: set factor to 0.0327
ElecMinimize: Iter:  34  G: -354.868870353658281  |grad|_K:  1.591e-06  alpha:  2.074e-01  linmin: -1.302e-04  t[s]:   9990.93
	FillingsUpdate:  mu: -0.064099835  nElectrons: 224.000000  magneticMoment: [ Abs: 1.37245  Tot: -1.16027 ]
	SubspaceRotationAdjust: set factor to 0.035
ElecMinimize: Iter:  35  G: -354.868995052096352  |grad|_K:  1.598e-06  alpha:  2.255e-01  linmin: -1.237e-04  t[s]:  10144.23
	FillingsUpdate:  mu: -0.064128800  nElectrons: 224.000000  magneticMoment: [ Abs: 1.40669  Tot: -1.16950 ]
	SubspaceRotationAdjust: set factor to 0.0431
ElecMinimize: Iter:  36  G: -354.869144204534393  |grad|_K:  1.683e-06  alpha:  2.666e-01  linmin: -8.480e-05  t[s]:  10298.42
	FillingsUpdate:  mu: -0.064403132  nElectrons: 224.000000  magneticMoment: [ Abs: 1.42984  Tot: -1.16512 ]
	SubspaceRotationAdjust: set factor to 0.0507
ElecMinimize: Iter:  37  G: -354.869299030180173  |grad|_K:  1.732e-06  alpha:  2.521e-01  linmin: -2.855e-05  t[s]:  10452.85
	FillingsUpdate:  mu: -0.064773073  nElectrons: 224.000000  magneticMoment: [ Abs: 1.44398  Tot: -1.15332 ]
	SubspaceRotationAdjust: set factor to 0.0588
ElecMinimize: Iter:  38  G: -354.869440323360607  |grad|_K:  1.822e-06  alpha:  2.218e-01  linmin: -2.138e-05  t[s]:  10607.77
	FillingsUpdate:  mu: -0.064813299  nElectrons: 224.000000  magneticMoment: [ Abs: 1.45661  Tot: -1.13974 ]
	SubspaceRotationAdjust: set factor to 0.066
ElecMinimize: Iter:  39  G: -354.869588828782241  |grad|_K:  1.914e-06  alpha:  2.112e-01  linmin: -4.507e-05  t[s]:  10761.92
	FillingsUpdate:  mu: -0.063956898  nElectrons: 224.000000  magneticMoment: [ Abs: 1.47318  Tot: -1.13092 ]
	SubspaceRotationAdjust: set factor to 0.0691
ElecMinimize: Iter:  40  G: -354.869752126348089  |grad|_K:  1.859e-06  alpha:  2.076e-01  linmin: -7.685e-05  t[s]:  10916.56
	FillingsUpdate:  mu: -0.061992386  nElectrons: 224.000000  magneticMoment: [ Abs: 1.49691  Tot: -1.13399 ]
	SubspaceRotationAdjust: set factor to 0.0874
ElecMinimize: Iter:  41  G: -354.869918205750594  |grad|_K:  1.766e-06  alpha:  2.203e-01  linmin: -5.509e-05  t[s]:  11071.65
	FillingsUpdate:  mu: -0.059616476  nElectrons: 224.000000  magneticMoment: [ Abs: 1.53042  Tot: -1.15157 ]
	SubspaceRotationAdjust: set factor to 0.111
ElecMinimize: Iter:  42  G: -354.870086696806993  |grad|_K:  1.885e-06  alpha:  2.508e-01  linmin:  4.174e-06  t[s]:  11227.18
	FillingsUpdate:  mu: -0.057770399  nElectrons: 224.000000  magneticMoment: [ Abs: 1.57007  Tot: -1.17993 ]
	SubspaceRotationAdjust: set factor to 0.132
ElecMinimize: Iter:  43  G: -354.870246709647347  |grad|_K:  2.007e-06  alpha:  2.133e-01  linmin:  1.631e-05  t[s]:  11382.12
	FillingsUpdate:  mu: -0.056762436  nElectrons: 224.000000  magneticMoment: [ Abs: 1.60854  Tot: -1.21047 ]
	SubspaceRotationAdjust: set factor to 0.166
ElecMinimize: Iter:  44  G: -354.870391193892203  |grad|_K:  2.092e-06  alpha:  1.713e-01  linmin:  9.960e-06  t[s]:  11523.80
	FillingsUpdate:  mu: -0.056400179  nElectrons: 224.000000  magneticMoment: [ Abs: 1.64378  Tot: -1.23900 ]
	SubspaceRotationAdjust: set factor to 0.199
ElecMinimize: Iter:  45  G: -354.870529833683008  |grad|_K:  2.202e-06  alpha:  1.517e-01  linmin:  1.888e-06  t[s]:  11678.81
	FillingsUpdate:  mu: -0.056544912  nElectrons: 224.000000  magneticMoment: [ Abs: 1.67504  Tot: -1.26372 ]
	SubspaceRotationAdjust: set factor to 0.253
ElecMinimize: Iter:  46  G: -354.870671275373240  |grad|_K:  2.263e-06  alpha:  1.393e-01  linmin: -8.080e-06  t[s]:  11834.11
	FillingsUpdate:  mu: -0.057168018  nElectrons: 224.000000  magneticMoment: [ Abs: 1.70174  Tot: -1.28433 ]
	SubspaceRotationAdjust: set factor to 0.339
ElecMinimize: Iter:  47  G: -354.870818205579951  |grad|_K:  2.282e-06  alpha:  1.357e-01  linmin: -1.083e-05  t[s]:  11989.28
	FillingsUpdate:  mu: -0.058095622  nElectrons: 224.000000  magneticMoment: [ Abs: 1.72363  Tot: -1.30204 ]
	SubspaceRotationAdjust: set factor to 0.433
ElecMinimize: Iter:  48  G: -354.870965779582548  |grad|_K:  2.303e-06  alpha:  1.335e-01  linmin: -4.503e-06  t[s]:  12144.06
	FillingsUpdate:  mu: -0.058850711  nElectrons: 224.000000  magneticMoment: [ Abs: 1.74204  Tot: -1.32044 ]
	SubspaceRotationAdjust: set factor to 0.556
ElecMinimize: Iter:  49  G: -354.871108827534272  |grad|_K:  2.343e-06  alpha:  1.278e-01  linmin:  4.537e-06  t[s]:  12300.05
	FillingsUpdate:  mu: -0.059157503  nElectrons: 224.000000  magneticMoment: [ Abs: 1.75753  Tot: -1.34165 ]
	SubspaceRotationAdjust: set factor to 0.72
ElecMinimize: Iter:  50  G: -354.871243201793732  |grad|_K:  2.379e-06  alpha:  1.169e-01  linmin:  5.540e-06  t[s]:  12455.14
	FillingsUpdate:  mu: -0.059404385  nElectrons: 224.000000  magneticMoment: [ Abs: 1.76767  Tot: -1.36346 ]
	SubspaceRotationAdjust: set factor to 0.92
	SubspaceRotationAdjust: resetting CG because factor has changed by 8.95216
ElecMinimize: 	State modified externally: resetting search direction.
ElecMinimize: Iter:  51  G: -354.871369670547551  |grad|_K:  2.500e-06  alpha:  1.068e-01
ElecMinimize: 	Predicted alpha/alphaT>3.000000, increasing alphaT to 3.204540e-01.
	FillingsUpdate:  mu: -0.059514704  nElectrons: 224.000000  magneticMoment: [ Abs: 1.71810  Tot: -1.37133 ]
	SubspaceRotationAdjust: set factor to 0.954
ElecMinimize: Iter:  52  G: -354.872418327772095  |grad|_K:  2.326e-06  alpha:  8.119e-01  linmin:  6.162e-05  t[s]:  12892.63
	FillingsUpdate:  mu: -0.062439965  nElectrons: 224.000000  magneticMoment: [ Abs: 1.66640  Tot: -1.33341 ]
	SubspaceRotationAdjust: set factor to 0.748
ElecMinimize: Iter:  53  G: -354.872723438963249  |grad|_K:  2.559e-06  alpha:  2.238e-01  linmin: -4.472e-04  t[s]:  13049.29
	FillingsUpdate:  mu: -0.059613004  nElectrons: 224.000000  magneticMoment: [ Abs: 1.65662  Tot: -1.34110 ]
	SubspaceRotationAdjust: set factor to 0.342
ElecMinimize: Iter:  54  G: -354.872941409391217  |grad|_K:  1.208e-06  alpha:  1.327e-01  linmin:  8.442e-06  t[s]:  13204.74
	FillingsUpdate:  mu: -0.061354525  nElectrons: 224.000000  magneticMoment: [ Abs: 1.62760  Tot: -1.31604 ]
	SubspaceRotationAdjust: set factor to 0.176
ElecMinimize: Iter:  55  G: -354.873002027433643  |grad|_K:  9.424e-07  alpha:  2.013e-01  linmin:  4.779e-04  t[s]:  13358.79
	FillingsUpdate:  mu: -0.060280949  nElectrons: 224.000000  magneticMoment: [ Abs: 1.60627  Tot: -1.30936 ]
	SubspaceRotationAdjust: set factor to 0.243
ElecMinimize: Iter:  56  G: -354.873091073123533  |grad|_K:  7.054e-07  alpha:  4.975e-01  linmin: -4.580e-06  t[s]:  13514.02
	FillingsUpdate:  mu: -0.059401050  nElectrons: 224.000000  magneticMoment: [ Abs: 1.59818  Tot: -1.31546 ]
	SubspaceRotationAdjust: set factor to 0.235
ElecMinimize: Iter:  57  G: -354.873154789690432  |grad|_K:  5.687e-07  alpha:  6.091e-01  linmin:  1.727e-05  t[s]:  13668.13
	FillingsUpdate:  mu: -0.060327108  nElectrons: 224.000000  magneticMoment: [ Abs: 1.58769  Tot: -1.31301 ]
	SubspaceRotationAdjust: set factor to 0.214
ElecMinimize: Iter:  58  G: -354.873192260819110  |grad|_K:  5.155e-07  alpha:  5.523e-01  linmin:  9.266e-06  t[s]:  13822.59
	FillingsUpdate:  mu: -0.059841978  nElectrons: 224.000000  magneticMoment: [ Abs: 1.58958  Tot: -1.32052 ]
	SubspaceRotationAdjust: set factor to 0.208
ElecMinimize: Iter:  59  G: -354.873213207637662  |grad|_K:  3.540e-07  alpha:  3.756e-01  linmin:  4.533e-06  t[s]:  13977.02
	FillingsUpdate:  mu: -0.060120853  nElectrons: 224.000000  magneticMoment: [ Abs: 1.59071  Tot: -1.32485 ]
	SubspaceRotationAdjust: set factor to 0.228
ElecMinimize: Iter:  60  G: -354.873230081555903  |grad|_K:  2.953e-07  alpha:  6.417e-01  linmin:  1.087e-05  t[s]:  14132.43
	FillingsUpdate:  mu: -0.060209031  nElectrons: 224.000000  magneticMoment: [ Abs: 1.59562  Tot: -1.33116 ]
	SubspaceRotationAdjust: set factor to 0.268
ElecMinimize: Iter:  61  G: -354.873240861553313  |grad|_K:  2.467e-07  alpha:  5.899e-01  linmin:  7.022e-06  t[s]:  14287.93
	FillingsUpdate:  mu: -0.059773963  nElectrons: 224.000000  magneticMoment: [ Abs: 1.60264  Tot: -1.33860 ]
	SubspaceRotationAdjust: set factor to 0.234
ElecMinimize: Iter:  62  G: -354.873246516112488  |grad|_K:  2.227e-07  alpha:  4.442e-01  linmin:  9.894e-07  t[s]:  14442.46
	FillingsUpdate:  mu: -0.060081984  nElectrons: 224.000000  magneticMoment: [ Abs: 1.60493  Tot: -1.33971 ]
	SubspaceRotationAdjust: set factor to 0.226
ElecMinimize: Iter:  63  G: -354.873250733286000  |grad|_K:  1.410e-07  alpha:  4.045e-01  linmin:  4.799e-06  t[s]:  14596.94
	FillingsUpdate:  mu: -0.060097040  nElectrons: 224.000000  magneticMoment: [ Abs: 1.60962  Tot: -1.34270 ]
	SubspaceRotationAdjust: set factor to 0.255
ElecMinimize: Iter:  64  G: -354.873253847604076  |grad|_K:  1.287e-07  alpha:  7.477e-01  linmin:  3.335e-06  t[s]:  14751.20
	FillingsUpdate:  mu: -0.060001621  nElectrons: 224.000000  magneticMoment: [ Abs: 1.61396  Tot: -1.34566 ]
	SubspaceRotationAdjust: set factor to 0.256
ElecMinimize: Iter:  65  G: -354.873255614744380  |grad|_K:  9.035e-08  alpha:  5.090e-01  linmin:  7.562e-07  t[s]:  14905.58
	FillingsUpdate:  mu: -0.060119819  nElectrons: 224.000000  magneticMoment: [ Abs: 1.61605  Tot: -1.34620 ]
	SubspaceRotationAdjust: set factor to 0.236
ElecMinimize: Iter:  66  G: -354.873256620119264  |grad|_K:  9.125e-08  alpha:  5.864e-01  linmin:  9.498e-07  t[s]:  15060.30
	FillingsUpdate:  mu: -0.059994360  nElectrons: 224.000000  magneticMoment: [ Abs: 1.61876  Tot: -1.34777 ]
	SubspaceRotationAdjust: set factor to 0.196
ElecMinimize: Iter:  67  G: -354.873257277152163  |grad|_K:  6.025e-08  alpha:  3.760e-01  linmin:  1.585e-07  t[s]:  15214.57
	FillingsUpdate:  mu: -0.060051438  nElectrons: 224.000000  magneticMoment: [ Abs: 1.62002  Tot: -1.34767 ]
	SubspaceRotationAdjust: set factor to 0.192
ElecMinimize: Iter:  68  G: -354.873257763828008  |grad|_K:  4.861e-08  alpha:  6.380e-01  linmin:  2.892e-07  t[s]:  15369.40
	FillingsUpdate:  mu: -0.060079485  nElectrons: 224.000000  magneticMoment: [ Abs: 1.62119  Tot: -1.34793 ]
	SubspaceRotationAdjust: set factor to 0.23
ElecMinimize: Iter:  69  G: -354.873258056158875  |grad|_K:  3.866e-08  alpha:  5.888e-01  linmin:  7.701e-07  t[s]:  15524.18
	FillingsUpdate:  mu: -0.060011036  nElectrons: 224.000000  magneticMoment: [ Abs: 1.62237  Tot: -1.34870 ]
	SubspaceRotationAdjust: set factor to 0.193
ElecMinimize: Iter:  70  G: -354.873258205102957  |grad|_K:  3.169e-08  alpha:  4.747e-01  linmin:  2.628e-07  t[s]:  15678.50
	FillingsUpdate:  mu: -0.060053759  nElectrons: 224.000000  magneticMoment: [ Abs: 1.62267  Tot: -1.34856 ]
	SubspaceRotationAdjust: set factor to 0.212
ElecMinimize: Iter:  71  G: -354.873258320198090  |grad|_K:  2.399e-08  alpha:  5.458e-01  linmin:  1.040e-06  t[s]:  15833.96
	FillingsUpdate:  mu: -0.060053381  nElectrons: 224.000000  magneticMoment: [ Abs: 1.62285  Tot: -1.34852 ]
	SubspaceRotationAdjust: set factor to 0.248
ElecMinimize: Iter:  72  G: -354.873258386712280  |grad|_K:  1.876e-08  alpha:  5.507e-01  linmin:  6.593e-07  t[s]:  15988.48
	FillingsUpdate:  mu: -0.060050637  nElectrons: 224.000000  magneticMoment: [ Abs: 1.62296  Tot: -1.34850 ]
	SubspaceRotationAdjust: set factor to 0.288
ElecMinimize: Iter:  73  G: -354.873258442322538  |grad|_K:  1.518e-08  alpha:  7.537e-01  linmin:  1.586e-06  t[s]:  16143.82
ElecMinimize: Converged (|Delta G|<1.000000e-07 for 2 iters).
Setting wave functions to eigenvectors of Hamiltonian
Converging empty states (this may take a while): |deigs|: 2.410e-03
Vacuum energy after initial minimize, F = -354.873258442322538

Shifting auxilliary hamiltonian by -0.085449 to set nElectrons=224.000000

-------- Electronic minimization -----------
	Linear fluid (dielectric constant: 78.4, screening length: 8.12261 Bohr) occupying 0.712076 of unit cell:	Completed after 24 iterations at t[s]:  16832.53
	FillingsUpdate:  mu: -0.145500000  nElectrons: 224.000000  magneticMoment: [ Abs: 1.62222  Tot: -1.34806 ]
ElecMinimize: Iter:   0  G: -354.868753534076575  |grad|_K:  1.147e-05  alpha:  1.000e+00
	Linear fluid (dielectric constant: 78.4, screening length: 8.12261 Bohr) occupying 0.713031 of unit cell:	Completed after 22 iterations at t[s]:  16987.90
	Linear fluid (dielectric constant: 78.4, screening length: 8.12261 Bohr) occupying 0.712579 of unit cell:	Completed after 20 iterations at t[s]:  17054.89
	FillingsUpdate:  mu: -0.145500000  nElectrons: 223.556163  magneticMoment: [ Abs: 1.36463  Tot: -1.06650 ]
	SubspaceRotationAdjust: set factor to 0.181
ElecMinimize: Iter:   1  G: -354.869894521127094  |grad|_K:  1.455e-05  alpha:  2.849e-01  linmin:  8.826e-03  t[s]:  17122.62
	Linear fluid (dielectric constant: 78.4, screening length: 8.12261 Bohr) occupying 0.713128 of unit cell:	Completed after 16 iterations at t[s]:  17194.33
	Linear fluid (dielectric constant: 78.4, screening length: 8.12261 Bohr) occupying 0.713283 of unit cell:	Completed after 11 iterations at t[s]:  17253.46
	FillingsUpdate:  mu: -0.145500000  nElectrons: 223.456072  magneticMoment: [ Abs: 1.39789  Tot: -1.01062 ]
	SubspaceRotationAdjust: set factor to 0.133
ElecMinimize: Iter:   2  G: -354.877729816553142  |grad|_K:  5.221e-06  alpha:  3.777e-01  linmin:  1.494e-03  t[s]:  17321.05
	Linear fluid (dielectric constant: 78.4, screening length: 8.12261 Bohr) occupying 0.713575 of unit cell:	Completed after 13 iterations at t[s]:  17390.18
	Linear fluid (dielectric constant: 78.4, screening length: 8.12261 Bohr) occupying 0.713584 of unit cell:	Completed after 2 iterations at t[s]:  17441.29
	FillingsUpdate:  mu: -0.145500000  nElectrons: 223.446227  magneticMoment: [ Abs: 1.39309  Tot: -1.00123 ]
	SubspaceRotationAdjust: set factor to 0.146
ElecMinimize: Iter:   3  G: -354.879742491280922  |grad|_K:  1.757e-06  alpha:  3.887e-01  linmin: -2.081e-04  t[s]:  17508.95
	Linear fluid (dielectric constant: 78.4, screening length: 8.12261 Bohr) occupying 0.713772 of unit cell:	Completed after 11 iterations at t[s]:  17577.15
	Linear fluid (dielectric constant: 78.4, screening length: 8.12261 Bohr) occupying 0.713945 of unit cell:	Completed after 11 iterations at t[s]:  17636.03
	FillingsUpdate:  mu: -0.145500000  nElectrons: 223.444749  magneticMoment: [ Abs: 1.39439  Tot: -0.99985 ]
	SubspaceRotationAdjust: set factor to 0.165
ElecMinimize: Iter:   4  G: -354.880230455141714  |grad|_K:  1.229e-06  alpha:  7.477e-01  linmin: -3.990e-08  t[s]:  17702.61
	Linear fluid (dielectric constant: 78.4, screening length: 8.12261 Bohr) occupying 0.714266 of unit cell:	Completed after 10 iterations at t[s]:  17768.87
	Linear fluid (dielectric constant: 78.4, screening length: 8.12261 Bohr) occupying 0.714233 of unit cell:	Completed after 2 iterations at t[s]:  17819.73
	FillingsUpdate:  mu: -0.145500000  nElectrons: 223.440602  magneticMoment: [ Abs: 1.38377  Tot: -0.99587 ]
	SubspaceRotationAdjust: set factor to 0.205
ElecMinimize: Iter:   5  G: -354.880442176928341  |grad|_K:  9.702e-07  alpha:  6.701e-01  linmin: -1.003e-04  t[s]:  17886.50
	Linear fluid (dielectric constant: 78.4, screening length: 8.12261 Bohr) occupying 0.714436 of unit cell:	Completed after 8 iterations at t[s]:  17950.92
	Linear fluid (dielectric constant: 78.4, screening length: 8.12261 Bohr) occupying 0.714486 of unit cell:	Completed after 3 iterations at t[s]:  18002.51
	FillingsUpdate:  mu: -0.145500000  nElectrons: 223.436728  magneticMoment: [ Abs: 1.37117  Tot: -0.99224 ]
	SubspaceRotationAdjust: set factor to 0.237
ElecMinimize: Iter:   6  G: -354.880611020068329  |grad|_K:  7.937e-07  alpha:  8.381e-01  linmin: -6.653e-05  t[s]:  18070.29
	Linear fluid (dielectric constant: 78.4, screening length: 8.12261 Bohr) occupying 0.714574 of unit cell:	Completed after 9 iterations at t[s]:  18136.05
	Linear fluid (dielectric constant: 78.4, screening length: 8.12261 Bohr) occupying 0.714572 of unit cell:	Completed after 2 iterations at t[s]:  18187.49
	FillingsUpdate:  mu: -0.145500000  nElectrons: 223.425056  magneticMoment: [ Abs: 1.34290  Tot: -0.98084 ]
	SubspaceRotationAdjust: set factor to 0.23
ElecMinimize: Iter:   7  G: -354.880720884029756  |grad|_K:  8.148e-07  alpha:  8.144e-01  linmin:  1.578e-04  t[s]:  18255.96
	Linear fluid (dielectric constant: 78.4, screening length: 8.12261 Bohr) occupying 0.714569 of unit cell:	Completed after 9 iterations at t[s]:  18322.13
	Linear fluid (dielectric constant: 78.4, screening length: 8.12261 Bohr) occupying 0.714570 of unit cell:	Completed after 3 iterations at t[s]:  18373.87
	FillingsUpdate:  mu: -0.145500000  nElectrons: 223.410562  magneticMoment: [ Abs: 1.31405  Tot: -0.96668 ]
	SubspaceRotationAdjust: set factor to 0.283
ElecMinimize: Iter:   8  G: -354.880810030580449  |grad|_K:  5.251e-07  alpha:  6.853e-01  linmin: -1.700e-05  t[s]:  18442.15
	Linear fluid (dielectric constant: 78.4, screening length: 8.12261 Bohr) occupying 0.714518 of unit cell:	Completed after 7 iterations at t[s]:  18507.21
	Linear fluid (dielectric constant: 78.4, screening length: 8.12261 Bohr) occupying 0.714509 of unit cell:	Completed after 2 iterations at t[s]:  18558.65
	FillingsUpdate:  mu: -0.145500000  nElectrons: 223.403185  magneticMoment: [ Abs: 1.29352  Tot: -0.95944 ]
	SubspaceRotationAdjust: set factor to 0.328
ElecMinimize: Iter:   9  G: -354.880856169641447  |grad|_K:  3.458e-07  alpha:  7.923e-01  linmin:  7.125e-06  t[s]:  18626.52
	Linear fluid (dielectric constant: 78.4, screening length: 8.12261 Bohr) occupying 0.714459 of unit cell:	Completed after 3 iterations at t[s]:  18686.03
	Linear fluid (dielectric constant: 78.4, screening length: 8.12261 Bohr) occupying 0.714459 of unit cell:	Completed after 0 iterations at t[s]:  18733.46
	FillingsUpdate:  mu: -0.145500000  nElectrons: 223.401852  magneticMoment: [ Abs: 1.27857  Tot: -0.95805 ]
	SubspaceRotationAdjust: set factor to 0.429
ElecMinimize: Iter:  10  G: -354.880875857401520  |grad|_K:  2.685e-07  alpha:  7.848e-01  linmin: -5.430e-06  t[s]:  18799.03
	Linear fluid (dielectric constant: 78.4, screening length: 8.12261 Bohr) occupying 0.714425 of unit cell:	Completed after 3 iterations at t[s]:  18856.26
	Linear fluid (dielectric constant: 78.4, screening length: 8.12261 Bohr) occupying 0.714427 of unit cell:	Completed after 0 iterations at t[s]:  18901.54
	FillingsUpdate:  mu: -0.145500000  nElectrons: 223.404417  magneticMoment: [ Abs: 1.26692  Tot: -0.96047 ]
	SubspaceRotationAdjust: set factor to 0.552
ElecMinimize: Iter:  11  G: -354.880886941197446  |grad|_K:  2.295e-07  alpha:  7.309e-01  linmin:  3.585e-05  t[s]:  18963.70
	Linear fluid (dielectric constant: 78.4, screening length: 8.12261 Bohr) occupying 0.714406 of unit cell:	Completed after 3 iterations at t[s]:  19018.43
	Linear fluid (dielectric constant: 78.4, screening length: 8.12261 Bohr) occupying 0.714407 of unit cell:	Completed after 0 iterations at t[s]:  19061.45
	FillingsUpdate:  mu: -0.145500000  nElectrons: 223.408927  magneticMoment: [ Abs: 1.25614  Tot: -0.96483 ]
	SubspaceRotationAdjust: set factor to 0.676
ElecMinimize: Iter:  12  G: -354.880894628349608  |grad|_K:  1.677e-07  alpha:  6.991e-01  linmin:  1.353e-05  t[s]:  19124.17
	Linear fluid (dielectric constant: 78.4, screening length: 8.12261 Bohr) occupying 0.714401 of unit cell:	Completed after 7 iterations at t[s]:  19188.54
	Linear fluid (dielectric constant: 78.4, screening length: 8.12261 Bohr) occupying 0.714404 of unit cell:	Completed after 3 iterations at t[s]:  19239.73
	FillingsUpdate:  mu: -0.145500000  nElectrons: 223.411849  magneticMoment: [ Abs: 1.25357  Tot: -0.96770 ]
	SubspaceRotationAdjust: set factor to 0.459
ElecMinimize: Iter:  13  G: -354.880896597453841  |grad|_K:  2.014e-07  alpha:  3.516e-01  linmin:  6.474e-05  t[s]:  19297.29
	Linear fluid (dielectric constant: 78.4, screening length: 8.12261 Bohr) occupying 0.714401 of unit cell:	Completed after 4 iterations at t[s]:  19350.55
	Linear fluid (dielectric constant: 78.4, screening length: 8.12261 Bohr) occupying 0.714402 of unit cell:	Completed after 2 iterations at t[s]:  19394.31
	FillingsUpdate:  mu: -0.145500000  nElectrons: 223.412385  magneticMoment: [ Abs: 1.24854  Tot: -0.96819 ]
	SubspaceRotationAdjust: set factor to 0.292
ElecMinimize: Iter:  14  G: -354.880898273494950  |grad|_K:  8.913e-08  alpha:  2.044e-01  linmin:  3.778e-05  t[s]:  19453.13
	Linear fluid (dielectric constant: 78.4, screening length: 8.12261 Bohr) occupying 0.714404 of unit cell:	Completed after 0 iterations at t[s]:  19502.77
ElecMinimize: 	Predicted alpha/alphaT>3.000000, increasing alphaT to 6.131009e-01.
	Linear fluid (dielectric constant: 78.4, screening length: 8.12261 Bohr) occupying 0.714406 of unit cell:	Completed after 2 iterations at t[s]:  19546.25
	Linear fluid (dielectric constant: 78.4, screening length: 8.12261 Bohr) occupying 0.714406 of unit cell:	Completed after 0 iterations at t[s]:  19587.65
	FillingsUpdate:  mu: -0.145500000  nElectrons: 223.413084  magneticMoment: [ Abs: 1.24573  Tot: -0.96888 ]
	SubspaceRotationAdjust: set factor to 0.38
ElecMinimize: Iter:  15  G: -354.880899250301297  |grad|_K:  5.996e-08  alpha:  5.939e-01  linmin: -3.909e-05  t[s]:  19646.61
	Linear fluid (dielectric constant: 78.4, screening length: 8.12261 Bohr) occupying 0.714411 of unit cell:	Completed after 2 iterations at t[s]:  19697.62
	Linear fluid (dielectric constant: 78.4, screening length: 8.12261 Bohr) occupying 0.714411 of unit cell:	Completed after 0 iterations at t[s]:  19739.21
	FillingsUpdate:  mu: -0.145500000  nElectrons: 223.413324  magneticMoment: [ Abs: 1.24438  Tot: -0.96912 ]
	SubspaceRotationAdjust: set factor to 0.41
ElecMinimize: Iter:  16  G: -354.880899697392238  |grad|_K:  4.151e-08  alpha:  5.843e-01  linmin: -1.339e-04  t[s]:  19797.95
	Linear fluid (dielectric constant: 78.4, screening length: 8.12261 Bohr) occupying 0.714416 of unit cell:	Completed after 1 iterations at t[s]:  19848.32
	Linear fluid (dielectric constant: 78.4, screening length: 8.12261 Bohr) occupying 0.714416 of unit cell:	Completed after 0 iterations at t[s]:  19889.64
	FillingsUpdate:  mu: -0.145500000  nElectrons: 223.412566  magneticMoment: [ Abs: 1.24289  Tot: -0.96838 ]
	SubspaceRotationAdjust: set factor to 0.46
ElecMinimize: Iter:  17  G: -354.880899953860023  |grad|_K:  3.242e-08  alpha:  6.765e-01  linmin: -6.271e-04  t[s]:  19947.41
	Linear fluid (dielectric constant: 78.4, screening length: 8.12261 Bohr) occupying 0.714421 of unit cell:	Completed after 1 iterations at t[s]:  19998.02
	Linear fluid (dielectric constant: 78.4, screening length: 8.12261 Bohr) occupying 0.714420 of unit cell:	Completed after 0 iterations at t[s]:  20039.25
	FillingsUpdate:  mu: -0.145500000  nElectrons: 223.412108  magneticMoment: [ Abs: 1.24239  Tot: -0.96794 ]
	SubspaceRotationAdjust: set factor to 0.648
ElecMinimize: Iter:  18  G: -354.880900082035168  |grad|_K:  2.224e-08  alpha:  5.479e-01  linmin: -3.126e-04  t[s]:  20096.85
	Linear fluid (dielectric constant: 78.4, screening length: 8.12261 Bohr) occupying 0.714422 of unit cell:	Completed after 0 iterations at t[s]:  20145.98
	Linear fluid (dielectric constant: 78.4, screening length: 8.12261 Bohr) occupying 0.714423 of unit cell:	Completed after 1 iterations at t[s]:  20188.94
	FillingsUpdate:  mu: -0.145500000  nElectrons: 223.411699  magneticMoment: [ Abs: 1.24240  Tot: -0.96754 ]
	SubspaceRotationAdjust: set factor to 0.652
ElecMinimize: Iter:  19  G: -354.880900129388692  |grad|_K:  2.513e-08  alpha:  7.866e-01  linmin:  6.154e-04  t[s]:  20247.29
	Linear fluid (dielectric constant: 78.4, screening length: 8.12261 Bohr) occupying 0.714425 of unit cell:	Completed after 2 iterations at t[s]:  20298.55
	Linear fluid (dielectric constant: 78.4, screening length: 8.12261 Bohr) occupying 0.714423 of unit cell:	Completed after 1 iterations at t[s]:  20341.54
	FillingsUpdate:  mu: -0.145500000  nElectrons: 223.411427  magneticMoment: [ Abs: 1.24234  Tot: -0.96727 ]
	SubspaceRotationAdjust: set factor to 0.743
ElecMinimize: Iter:  20  G: -354.880900150201853  |grad|_K:  1.825e-08  alpha:  2.089e-01  linmin:  1.745e-04  t[s]:  20399.81
ElecMinimize: Converged (|Delta G|<1.000000e-07 for 2 iters).
Setting wave functions to eigenvectors of Hamiltonian
Converging empty states (this may take a while): |deigs|: 9.443e-04
Single-point solvation energy estimate, DeltaG = -0.007641707879316

Computing DFT-D3 correction:
# coordination-number C 3.299 3.321 3.334 3.331 3.312 3.290 3.313 3.499 3.327 3.312 3.301 3.334 3.299 3.299 3.321 3.737 3.266 3.301 3.319 3.332 3.326 3.303 3.299 3.327 3.334 3.319 3.299 3.266 3.500 3.321 3.301 3.303 3.313 3.299 3.312 3.326 3.737 3.335 3.290 3.312 3.331 3.332 3.321 3.301 2.021
# coordination-number N 3.165 3.183 3.164 3.182
# coordination-number Ti 5.650
# coordination-number O 1.056 1.014
# diagonal-C6 C 24.29 24.07 23.93 23.97 24.16 24.38 24.15 21.66 24.00 24.16 24.27 23.93 24.29 24.29 24.07 19.06 24.58 24.27 24.09 23.95 24.02 24.25 24.29 24.00 23.93 24.09 24.29 24.58 21.65 24.07 24.27 24.25 24.15 24.29 24.17 24.02 19.06 23.92 24.38 24.16 23.97 23.95 24.07 24.27 29.45
# diagonal-C6 N 15.60 15.60 15.60 15.60
# diagonal-C6 Ti 321.59
# diagonal-C6 O 12.77 12.80
EvdW_6 =   -0.038232
EvdW_8 =   -0.030608

# Ionic positions in cartesian coordinates:
ion C   0.102941000000000   0.057112000000000   0.012629000000000 1
ion C  -2.291549000000000   3.988942000000002   0.034423000000000 1
ion C  -4.635884000000001   7.989908000000002  43.192860000000010 1
ion C  -6.943541000000001  12.008855000000001  43.169761000000008 1
ion C  -9.271488000000002  16.022771000000002  43.216268000000007 1
ion C   4.782497000000000   0.148002000000000   0.040784000000000 1
ion C   2.394527000000000   4.185709000000001   0.227577000000000 1
ion C  -0.020827000000000   7.988301000000002   0.234277000000000 1
ion C  -2.324675000000001  11.991831000000003   0.041484000000000 1
ion C  -4.619979000000001  16.021295000000002  43.245224000000007 1
ion C   9.477102000000002   0.033837000000000  43.251482000000010 1
ion C   7.179561999999999   4.131821000000001   0.069593000000000 1
ion C   0.079828000000001  15.912355000000002   0.093225000000000 1
ion C   2.442876000000000  19.890132000000005   0.016957000000000 1
ion C  11.854834000000002   3.993015000000001  43.217484000000006 1
ion C   9.564156000000001   7.987988000000001   0.035793000000000 1
ion C   4.771035999999999  15.795863000000004   0.143742000000000 1
ion C   7.095729000000002  19.900597000000005   0.005683000000000 1
ion C  16.498501999999998   3.979123000000000  43.204544000000006 1
ion C  14.190274000000002   8.002476000000001  43.172523000000005 1
ion C  11.877145000000002  12.009012000000004  43.220657000000010 1
ion C   9.475661999999998  15.953473000000004  43.238054000000005 1
ion C   0.090217000000000   2.743476000000000   0.080138000000000 1
ion C  -2.320311000000000   6.659991000000001   0.034778000000000 1
ion C  -4.637990000000001  10.658310000000002  43.195329000000008 1
ion C  -6.945919000000003  14.683584000000002  43.205267000000006 1
ion C  -9.274270000000001  18.711051000000005   0.007054000000000 1
ion C   4.780968000000000   2.867184000000000   0.133304000000000 1
ion C  -0.023294000000000  10.666875000000001   0.238354000000000 1
ion C  -2.299894999999999  14.662957000000002   0.044229000000000 1
ion C  -4.621474000000000  18.707631000000003   0.005149000000000 1
ion C   9.485692999999999   2.716849000000000  43.238267000000008 1
ion C   2.386339000000001  14.473849000000001   0.239525000000000 1
ion C   0.088547999999998  18.598663000000002   0.023763000000000 1
ion C  14.174971000000003   2.636430000000001  43.220541000000004 1
ion C  11.881053000000001   6.664743000000000  43.220089000000009 1
ion C   9.562388000000000  10.682404999999999   0.036672000000000 1
ion C   7.171813000000000  14.535397000000001   0.074400000000000 1
ion C   4.768341000000001  18.514935000000005   0.049760000000000 1
ion C  18.826530000000005   2.644992000000000  43.241273000000007 1
ion C  16.496817000000004   6.653822000000002  43.167692000000010 1
ion C  14.188308000000001  10.674655000000001  43.173014000000009 1
ion C  11.846716000000002  14.680695000000004  43.215828000000009 1
ion C   9.462878000000002  18.636363000000003  43.247389000000005 1
ion C   3.371207000000001   9.313312000000000   8.106685000000002 1
ion N   2.273855999999999  11.867570000000002   0.484202000000000 1
ion N   7.276430000000000  11.937840000000003   0.168608000000000 1
ion N   2.278528000000000   6.791416000000002   0.476995000000000 1
ion N   7.279650000000000   6.729798000000000   0.165959000000000 1
ion Ti   5.030116000000000   9.333072000000001   1.727184000000000 1
ion O   5.510004000000000   9.309300000000002   7.485045000000002 1
ion O   1.228344000000000   9.316995000000002   8.618119000000002 1

# Forces in Cartesian coordinates:
force C   0.000063598745927   0.000045994320926   0.000063240243357 1
force C   0.000048301490619   0.000031093460294   0.000167778917392 1
force C   0.000072125625345   0.000007496445172   0.000030838157037 1
force C   0.000063277974627   0.000013485296357   0.000014349136236 1
force C   0.000043888570319   0.000015858554648  -0.000017348072059 1
force C   0.000051153781295   0.000020281478628   0.000019238952472 1
force C   0.000089525732551   0.000085030056466   0.000426873159001 1
force C   0.000043923110049   0.000054421292107   0.000546365008536 1
force C   0.000072162716923   0.000005021839186   0.000158236731632 1
force C   0.000066664551051  -0.000000481008915  -0.000008840759093 1
force C   0.000040137565759   0.000011763240711  -0.000057075721139 1
force C   0.000026679188519   0.000072176293773  -0.000083947055798 1
force C   0.000088329211462  -0.000038749395988   0.000164945441222 1
force C   0.000051135712513  -0.000004951761456  -0.000050651450007 1
force C   0.000054617008184   0.000011454872718  -0.000027843198371 1
force C   0.000078285479753   0.000041065667677   0.000024427108061 1
force C   0.000046942377511  -0.000030097829958   0.000012654835190 1
force C   0.000048583991691   0.000012824725453  -0.000060103357763 1
force C   0.000047852547802   0.000007226723909  -0.000001100484177 1
force C   0.000053474564322  -0.000000455008903   0.000123474541368 1
force C   0.000068727551624   0.000031689465118   0.000074895241466 1
force C   0.000001461768528  -0.000025157712690  -0.000113538838581 1
force C   0.000093496979639   0.000056060639760   0.000252663130010 1
force C   0.000075992794141   0.000010974620624   0.000205682973781 1
force C   0.000070847048839   0.000003900140676   0.000010257021268 1
force C   0.000047196197447   0.000004228316634  -0.000008029923098 1
force C   0.000053372651954   0.000019655126540   0.000023861243861 1
force C   0.000048827648252   0.000047483383402   0.000109734455180 1
force C   0.000042936465578  -0.000033189875349   0.000520138811375 1
force C   0.000044174810950  -0.000016103768839   0.000105443132128 1
force C   0.000045878846412   0.000003262085399  -0.000035938291009 1
force C  -0.000001569280185   0.000042690180189  -0.000086921686515 1
force C   0.000086383481582  -0.000064839915882   0.000338657953814 1
force C   0.000058827356310  -0.000028931461889  -0.000007526827824 1
force C   0.000042906249639  -0.000001955907346  -0.000042403315658 1
force C   0.000065422881379  -0.000017667375955   0.000094392870623 1
force C   0.000079754755768  -0.000023240437117   0.000009476413437 1
force C   0.000025414982156  -0.000053708363306  -0.000146891698191 1
force C   0.000050485154196  -0.000003201934250  -0.000064825083449 1
force C   0.000070262367300   0.000015800567114   0.000009227797418 1
force C   0.000063837262221  -0.000002284927970   0.000036544912814 1
force C   0.000054160900358   0.000011057757090   0.000112598457274 1
force C   0.000056506734584   0.000003125010948  -0.000036807978629 1
force C   0.000044585500117   0.000004429866430  -0.000050122960327 1
force C  -0.001260598151034  -0.000050889742416  -0.001584251200789 1
force N   0.000068913478975  -0.000099842865769   0.000803964807400 1
force N   0.000000197894753  -0.000124030163397  -0.000041559083889 1
force N   0.000071092425018   0.000122742693772   0.000847421601707 1
force N   0.000001344529694   0.000139812503436  -0.000004707319431 1
force Ti   0.000472290258513   0.000022972360847   0.000623595860836 1
force O  -0.002553806076579  -0.000079143204956  -0.006625799355931 1
force O  -0.000065550890821  -0.000025017188267   0.003124570154036 1

# Energy components:
   A_diel =        0.0220862808379396
   Eewald =     1589.3505523510068542
       EH =     1894.2066492850433406
     Eloc =    -4015.2754728031432023
      Enl =       52.6711961860797189
     EvdW =       -0.0688403076535077
      Exc =     -108.6324585041467685
 Exc_core =        3.3095067591225815
       KE =      197.0231509185170466
  MuShift =        0.0064676803478492
-------------------------------------
     Etot =     -387.3871621539877879
       TS =        0.0001006220672108
-------------------------------------
        F =     -387.3872627760550245
      muN =      -32.5063626258531571
-------------------------------------
        G =     -354.8809001502018532


Dumping 'jdft.fillings' ... done
Dumping 'jdft.wfns' ... done
Dumping 'jdft.fluidState' ... done
Dumping 'jdft.ionpos' ... done
Dumping 'jdft.lattice' ... done
Dumping 'jdft.eigenvals' ... done
Dumping 'jdft.eigStats' ... 
	eMin: -2.281738 at state 9 ( [ +0.000000 +0.000000 +0.000000 ] spin -1 )
	HOMO: -0.147309 at state 13 ( [ +0.333333 +0.333333 +0.000000 ] spin -1 )
	mu  : -0.145500
	LUMO: -0.135963 at state 11 ( [ +0.000000 -0.333333 +0.000000 ] spin -1 )
	eMax: +0.015593 at state 0 ( [ +0.000000 +0.000000 +0.000000 ] spin 1 )
	HOMO-LUMO gap: +0.011346
	Optical gap  : +0.015162 at state 11 ( [ +0.000000 -0.333333 +0.000000 ] spin -1 )
Dumping 'jdft.Ecomponents' ... done
IonicMinimize: Iter:   0  G: -354.880900150201853  |grad|_K:  6.589e-04  t[s]:  21392.87
IonicMinimize: None of the convergence criteria satisfied after 0 iterations.

#--- Lowdin population analysis ---
# oxidation-state C +0.044 +0.053 +0.044 +0.050 +0.042 +0.045 +0.166 +0.138 +0.032 +0.041 +0.044 +0.170 +0.031 +0.047 +0.053 +0.116 +0.005 +0.048 +0.041 +0.046 +0.035 +0.029 +0.031 +0.032 +0.044 +0.041 +0.047 +0.005 +0.138 +0.053 +0.048 +0.029 +0.166 +0.044 +0.042 +0.035 +0.116 +0.170 +0.045 +0.041 +0.050 +0.046 +0.053 +0.044 +0.809
# magnetic-moments C +0.001 -0.008 -0.001 -0.001 -0.000 -0.001 -0.019 -0.005 -0.000 -0.000 -0.002 -0.016 +0.004 -0.003 -0.000 +0.001 +0.011 -0.002 +0.001 +0.001 -0.005 -0.003 +0.004 -0.000 -0.002 +0.001 -0.003 +0.011 -0.006 -0.008 -0.002 -0.003 -0.019 +0.001 -0.000 -0.005 +0.001 -0.016 -0.001 -0.000 -0.001 +0.001 -0.000 -0.002 -0.002
# oxidation-state N -0.311 -0.303 -0.311 -0.303
# magnetic-moments N +0.022 +0.022 +0.022 +0.022
# oxidation-state Ti +1.371
# magnetic-moments Ti -0.927
# oxidation-state O -0.300 -0.238
# magnetic-moments O -0.000 -0.001


Dumping 'jdft.n_up' ... done
Dumping 'jdft.n_dn' ... done
Dumping 'jdft.tau_up' ... done
Dumping 'jdft.tau_dn' ... done
Dumping 'jdft.eigenvals' ... done
Dumping 'jdft.eigStats' ... 
	eMin: -2.281738 at state 9 ( [ +0.000000 +0.000000 +0.000000 ] spin -1 )
	HOMO: -0.147309 at state 13 ( [ +0.333333 +0.333333 +0.000000 ] spin -1 )
	mu  : -0.145500
	LUMO: -0.135963 at state 11 ( [ +0.000000 -0.333333 +0.000000 ] spin -1 )
	eMax: +0.015593 at state 0 ( [ +0.000000 +0.000000 +0.000000 ] spin 1 )
	HOMO-LUMO gap: +0.011346
	Optical gap  : +0.015162 at state 11 ( [ +0.000000 -0.333333 +0.000000 ] spin -1 )
Dumping 'jdft.kPts' ... done
Dumping 'jdft.dosUp' ... done.
Dumping 'jdft.dosDn' ... done.
End date and time: Tue Mar 14 19:31:00 2023  (Duration: 0-5:58:00.75)
Done!

PROFILER:             augmentDensityGrid     1.064989 +/-     1.190634 s, 1000 calls,   1064.988851 s total
PROFILER:         augmentDensityGridGrad     0.668686 +/-     0.663732 s,  508 calls,    339.692394 s total
PROFILER:        augmentDensitySpherical     0.000693 +/-     0.000900 s, 1000 calls,      0.693222 s total
PROFILER:    augmentDensitySphericalGrad     0.000689 +/-     0.000951 s,  712 calls,      0.490387 s total
PROFILER:                 augmentOverlap     2.168749 +/-     2.912455 s, 1940 calls,   4207.372185 s total
PROFILER:        ColumnBundle::randomize     0.006498 +/-     0.000000 s,    1 calls,      0.006498 s total
PROFILER:                     diagouterI    21.674749 +/-     5.018404 s,  253 calls,   5483.711497 s total
PROFILER:              EdensityAndVscloc     3.483304 +/-     5.610730 s,  251 calls,    874.309198 s total
PROFILER:                     EnlAndGrad     0.002047 +/-     0.003055 s,  988 calls,      2.021974 s total
PROFILER:            ExCorrCommunication     0.087792 +/-     0.088964 s, 1519 calls,    133.355982 s total
PROFILER:               ExCorrFunctional     0.036732 +/-     0.004624 s,  255 calls,      9.366623 s total
PROFILER:                    ExCorrTotal     0.901795 +/-     0.173909 s,  255 calls,    229.957703 s total
PROFILER:                   Idag_DiagV_I    32.966475 +/-    18.805887 s,  177 calls,   5835.066040 s total
PROFILER:                    initWeights     2.527967 +/-     0.000000 s,    1 calls,      2.527967 s total
PROFILER:                    inv(matrix)     0.002568 +/-     0.000185 s,  190 calls,      0.487901 s total
PROFILER:            matrix::diagonalize     0.012861 +/-     0.007195 s,  422 calls,      5.427218 s total
PROFILER:                    matrix::set     0.000003 +/-     0.000003 s, 22566 calls,      0.060218 s total
PROFILER:            orthoMatrix(matrix)     0.002310 +/-     0.000620 s,  241 calls,      0.556666 s total
PROFILER:     RadialFunctionR::transform     0.023996 +/-     0.184231 s,  141 calls,      3.383374 s total
PROFILER:                    reduceKmesh     0.000000 +/-     0.000000 s,    1 calls,      0.000000 s total
PROFILER:   VanDerWaalsD3::energyAndGrad     0.038354 +/-     0.002557 s,    3 calls,      0.115063 s total
PROFILER:               WavefunctionDrag    17.029983 +/-     0.000000 s,    1 calls,     17.029983 s total
PROFILER:                            Y*M     0.961763 +/-     1.153859 s, 3672 calls,   3531.594590 s total
PROFILER:                          Y1^Y2     0.946431 +/-     1.161836 s, 2572 calls,   2434.219284 s total

MEMUSAGE:                   ColumnBundle     1.333771 GB
MEMUSAGE:        complexScalarFieldTilde     0.074158 GB
MEMUSAGE:                    IndexArrays     0.023178 GB
MEMUSAGE:                         matrix     0.020674 GB
MEMUSAGE:                           misc     0.050872 GB
MEMUSAGE:                    ScalarField     0.358429 GB
MEMUSAGE:               ScalarFieldTilde     0.262436 GB
MEMUSAGE:                          Total     1.613345 GB
