
*************** JDFTx 1.7.0 (git hash 5f12716a) ***************

Start date and time: Tue Mar 14 13:36:10 2023
Executable /home/nisi6161/jdftx_alpine/build/jdftx with command-line: -i in
Running on hosts (process indices):  c3cpu-a2-u3-1.rc.int.colorado.edu (0-17)
Divided in process groups (process indices):  0 (0)  1 (1)  2 (2)  3 (3)  4 (4)  5 (5)  6 (6)  7 (7)  8 (8)  9 (9)  10 (10)  11 (11)  12 (12)  13 (13)  14 (14)  15 (15)  16 (16)  17 (17)
Resource initialization completed at t[s]:      0.04
Run totals: 18 processes, 64 threads, 0 GPUs


Input parsed successfully to the following command list (including defaults):

basis kpoint-dependent
converge-empty-states yes
coords-type Cartesian
core-overlap-check none
coulomb-interaction Periodic
davidson-band-ratio 1.1
density-of-states Etol 1.000000e-06 Esigma 1.000000e-03 \
		Complete \
	Total \
	OrthoOrbital C 1   s \
	OrthoOrbital C 1   p \
	OrthoOrbital C 1   px \
	OrthoOrbital C 1   py \
	OrthoOrbital C 1   pz \
	OrthoOrbital C 2   s \
	OrthoOrbital C 2   p \
	OrthoOrbital C 2   px \
	OrthoOrbital C 2   py \
	OrthoOrbital C 2   pz \
	OrthoOrbital C 3   s \
	OrthoOrbital C 3   p \
	OrthoOrbital C 3   px \
	OrthoOrbital C 3   py \
	OrthoOrbital C 3   pz \
	OrthoOrbital C 4   s \
	OrthoOrbital C 4   p \
	OrthoOrbital C 4   px \
	OrthoOrbital C 4   py \
	OrthoOrbital C 4   pz \
	OrthoOrbital C 5   s \
	OrthoOrbital C 5   p \
	OrthoOrbital C 5   px \
	OrthoOrbital C 5   py \
	OrthoOrbital C 5   pz \
	OrthoOrbital C 6   s \
	OrthoOrbital C 6   p \
	OrthoOrbital C 6   px \
	OrthoOrbital C 6   py \
	OrthoOrbital C 6   pz \
	OrthoOrbital C 7   s \
	OrthoOrbital C 7   p \
	OrthoOrbital C 7   px \
	OrthoOrbital C 7   py \
	OrthoOrbital C 7   pz \
	OrthoOrbital C 8   s \
	OrthoOrbital C 8   p \
	OrthoOrbital C 8   px \
	OrthoOrbital C 8   py \
	OrthoOrbital C 8   pz \
	OrthoOrbital C 9   s \
	OrthoOrbital C 9   p \
	OrthoOrbital C 9   px \
	OrthoOrbital C 9   py \
	OrthoOrbital C 9   pz \
	OrthoOrbital C 10   s \
	OrthoOrbital C 10   p \
	OrthoOrbital C 10   px \
	OrthoOrbital C 10   py \
	OrthoOrbital C 10   pz \
	OrthoOrbital C 11   s \
	OrthoOrbital C 11   p \
	OrthoOrbital C 11   px \
	OrthoOrbital C 11   py \
	OrthoOrbital C 11   pz \
	OrthoOrbital C 12   s \
	OrthoOrbital C 12   p \
	OrthoOrbital C 12   px \
	OrthoOrbital C 12   py \
	OrthoOrbital C 12   pz \
	OrthoOrbital C 13   s \
	OrthoOrbital C 13   p \
	OrthoOrbital C 13   px \
	OrthoOrbital C 13   py \
	OrthoOrbital C 13   pz \
	OrthoOrbital C 14   s \
	OrthoOrbital C 14   p \
	OrthoOrbital C 14   px \
	OrthoOrbital C 14   py \
	OrthoOrbital C 14   pz \
	OrthoOrbital C 15   s \
	OrthoOrbital C 15   p \
	OrthoOrbital C 15   px \
	OrthoOrbital C 15   py \
	OrthoOrbital C 15   pz \
	OrthoOrbital C 16   s \
	OrthoOrbital C 16   p \
	OrthoOrbital C 16   px \
	OrthoOrbital C 16   py \
	OrthoOrbital C 16   pz \
	OrthoOrbital C 17   s \
	OrthoOrbital C 17   p \
	OrthoOrbital C 17   px \
	OrthoOrbital C 17   py \
	OrthoOrbital C 17   pz \
	OrthoOrbital C 18   s \
	OrthoOrbital C 18   p \
	OrthoOrbital C 18   px \
	OrthoOrbital C 18   py \
	OrthoOrbital C 18   pz \
	OrthoOrbital C 19   s \
	OrthoOrbital C 19   p \
	OrthoOrbital C 19   px \
	OrthoOrbital C 19   py \
	OrthoOrbital C 19   pz \
	OrthoOrbital C 20   s \
	OrthoOrbital C 20   p \
	OrthoOrbital C 20   px \
	OrthoOrbital C 20   py \
	OrthoOrbital C 20   pz \
	OrthoOrbital C 21   s \
	OrthoOrbital C 21   p \
	OrthoOrbital C 21   px \
	OrthoOrbital C 21   py \
	OrthoOrbital C 21   pz \
	OrthoOrbital C 22   s \
	OrthoOrbital C 22   p \
	OrthoOrbital C 22   px \
	OrthoOrbital C 22   py \
	OrthoOrbital C 22   pz \
	OrthoOrbital C 23   s \
	OrthoOrbital C 23   p \
	OrthoOrbital C 23   px \
	OrthoOrbital C 23   py \
	OrthoOrbital C 23   pz \
	OrthoOrbital C 24   s \
	OrthoOrbital C 24   p \
	OrthoOrbital C 24   px \
	OrthoOrbital C 24   py \
	OrthoOrbital C 24   pz \
	OrthoOrbital C 25   s \
	OrthoOrbital C 25   p \
	OrthoOrbital C 25   px \
	OrthoOrbital C 25   py \
	OrthoOrbital C 25   pz \
	OrthoOrbital C 26   s \
	OrthoOrbital C 26   p \
	OrthoOrbital C 26   px \
	OrthoOrbital C 26   py \
	OrthoOrbital C 26   pz \
	OrthoOrbital C 27   s \
	OrthoOrbital C 27   p \
	OrthoOrbital C 27   px \
	OrthoOrbital C 27   py \
	OrthoOrbital C 27   pz \
	OrthoOrbital C 28   s \
	OrthoOrbital C 28   p \
	OrthoOrbital C 28   px \
	OrthoOrbital C 28   py \
	OrthoOrbital C 28   pz \
	OrthoOrbital C 29   s \
	OrthoOrbital C 29   p \
	OrthoOrbital C 29   px \
	OrthoOrbital C 29   py \
	OrthoOrbital C 29   pz \
	OrthoOrbital C 30   s \
	OrthoOrbital C 30   p \
	OrthoOrbital C 30   px \
	OrthoOrbital C 30   py \
	OrthoOrbital C 30   pz \
	OrthoOrbital C 31   s \
	OrthoOrbital C 31   p \
	OrthoOrbital C 31   px \
	OrthoOrbital C 31   py \
	OrthoOrbital C 31   pz \
	OrthoOrbital C 32   s \
	OrthoOrbital C 32   p \
	OrthoOrbital C 32   px \
	OrthoOrbital C 32   py \
	OrthoOrbital C 32   pz \
	OrthoOrbital C 33   s \
	OrthoOrbital C 33   p \
	OrthoOrbital C 33   px \
	OrthoOrbital C 33   py \
	OrthoOrbital C 33   pz \
	OrthoOrbital C 34   s \
	OrthoOrbital C 34   p \
	OrthoOrbital C 34   px \
	OrthoOrbital C 34   py \
	OrthoOrbital C 34   pz \
	OrthoOrbital C 35   s \
	OrthoOrbital C 35   p \
	OrthoOrbital C 35   px \
	OrthoOrbital C 35   py \
	OrthoOrbital C 35   pz \
	OrthoOrbital C 36   s \
	OrthoOrbital C 36   p \
	OrthoOrbital C 36   px \
	OrthoOrbital C 36   py \
	OrthoOrbital C 36   pz \
	OrthoOrbital C 37   s \
	OrthoOrbital C 37   p \
	OrthoOrbital C 37   px \
	OrthoOrbital C 37   py \
	OrthoOrbital C 37   pz \
	OrthoOrbital C 38   s \
	OrthoOrbital C 38   p \
	OrthoOrbital C 38   px \
	OrthoOrbital C 38   py \
	OrthoOrbital C 38   pz \
	OrthoOrbital C 39   s \
	OrthoOrbital C 39   p \
	OrthoOrbital C 39   px \
	OrthoOrbital C 39   py \
	OrthoOrbital C 39   pz \
	OrthoOrbital C 40   s \
	OrthoOrbital C 40   p \
	OrthoOrbital C 40   px \
	OrthoOrbital C 40   py \
	OrthoOrbital C 40   pz \
	OrthoOrbital C 41   s \
	OrthoOrbital C 41   p \
	OrthoOrbital C 41   px \
	OrthoOrbital C 41   py \
	OrthoOrbital C 41   pz \
	OrthoOrbital C 42   s \
	OrthoOrbital C 42   p \
	OrthoOrbital C 42   px \
	OrthoOrbital C 42   py \
	OrthoOrbital C 42   pz \
	OrthoOrbital C 43   s \
	OrthoOrbital C 43   p \
	OrthoOrbital C 43   px \
	OrthoOrbital C 43   py \
	OrthoOrbital C 43   pz \
	OrthoOrbital C 44   s \
	OrthoOrbital C 44   p \
	OrthoOrbital C 44   px \
	OrthoOrbital C 44   py \
	OrthoOrbital C 44   pz \
	OrthoOrbital N 1   s \
	OrthoOrbital N 1   p \
	OrthoOrbital N 1   px \
	OrthoOrbital N 1   py \
	OrthoOrbital N 1   pz \
	OrthoOrbital N 2   s \
	OrthoOrbital N 2   p \
	OrthoOrbital N 2   px \
	OrthoOrbital N 2   py \
	OrthoOrbital N 2   pz \
	OrthoOrbital N 3   s \
	OrthoOrbital N 3   p \
	OrthoOrbital N 3   px \
	OrthoOrbital N 3   py \
	OrthoOrbital N 3   pz \
	OrthoOrbital N 4   s \
	OrthoOrbital N 4   p \
	OrthoOrbital N 4   px \
	OrthoOrbital N 4   py \
	OrthoOrbital N 4   pz \
	OrthoOrbital Ti 1   s \
	OrthoOrbital Ti 1   p \
	OrthoOrbital Ti 1   px \
	OrthoOrbital Ti 1   py \
	OrthoOrbital Ti 1   pz \
	OrthoOrbital Ti 1   d \
	OrthoOrbital Ti 1   dxy \
	OrthoOrbital Ti 1   dyz \
	OrthoOrbital Ti 1   dz2 \
	OrthoOrbital Ti 1   dxz \
	OrthoOrbital Ti 1   dx2-y2
dump End ElecDensity KEdensity BandEigs EigStats RhoAtom DOS Kpoints
dump Ionic State IonicPositions Lattice EigStats Ecomponents
dump 
dump 
dump 
dump 
dump 
dump 
dump 
dump 
dump-name jdft.$VAR
elec-cutoff 20
elec-eigen-algo Davidson
elec-ex-corr gga-PBE
elec-initial-magnetization 0.000000 no
elec-n-bands 125
elec-smearing Fermi 0.001
electronic-minimize  \
	dirUpdateScheme      FletcherReeves \
	linminMethod         DirUpdateRecommended \
	nIterations          100 \
	history              15 \
	knormThreshold       0 \
	energyDiffThreshold  1e-07 \
	nEnergyDiff          2 \
	alphaTstart          1 \
	alphaTmin            1e-10 \
	updateTestStepSize   yes \
	alphaTreduceFactor   0.1 \
	alphaTincreaseFactor 3 \
	nAlphaAdjustMax      3 \
	wolfeEnergy          0.0001 \
	wolfeGradient        0.9 \
	fdTest               no
exchange-regularization WignerSeitzTruncated
fluid LinearPCM 298.000000 1.013250
fluid-anion F- 0.5 MeanFieldLJ \
	epsBulk 1 \
	pMol 0 \
	epsInf 1 \
	Pvap 0 \
	sigmaBulk 0 \
	Rvdw 2.24877 \
	Res 0 \
	tauNuc 343133
fluid-cation Na+ 0.5 MeanFieldLJ \
	epsBulk 1 \
	pMol 0 \
	epsInf 1 \
	Pvap 0 \
	sigmaBulk 0 \
	Rvdw 2.19208 \
	Res 0 \
	tauNuc 343133
fluid-ex-corr lda-TF lda-PZ
fluid-gummel-loop 10 1.000000e-05
fluid-minimize  \
	dirUpdateScheme      PolakRibiere \
	linminMethod         DirUpdateRecommended \
	nIterations          400 \
	history              15 \
	knormThreshold       1e-11 \
	energyDiffThreshold  0 \
	nEnergyDiff          2 \
	alphaTstart          1 \
	alphaTmin            1e-10 \
	updateTestStepSize   yes \
	alphaTreduceFactor   0.1 \
	alphaTincreaseFactor 3 \
	nAlphaAdjustMax      6 \
	wolfeEnergy          0.0001 \
	wolfeGradient        0.9 \
	fdTest               no
fluid-solvent H2O 55.338 ScalarEOS \
	epsBulk 78.4 \
	pMol 0.92466 \
	epsInf 1.77 \
	Pvap 1.06736e-10 \
	sigmaBulk 4.62e-05 \
	Rvdw 2.61727 \
	Res 1.42 \
	tauNuc 343133 \
	poleEl 15 7 1
forces-output-coords Positions
ion C   0.000071000000000   0.029053000000000  -0.006315000000000 1
ion C  21.038940999999998   3.979909999999999  -0.051864000000000 1
ion C  18.696676999999998   7.978919999999999  -0.182023000000000 1
ion C  -7.038351999999997  11.978806999999996  -0.185267000000000 1
ion C  -9.366097999999997  15.988189999999998  -0.072411000000000 1
ion C   4.684885999999999   0.142171000000000   0.038152000000000 1
ion C   2.289600000000001   4.159014999999999   0.144390000000000 1
ion C  -0.115523000000000   7.958648000000000   0.054243000000000 1
ion C  -2.423620000000001  11.962605999999999  -0.095077000000000 1
ion C  -4.717501999999998  15.991342999999999  -0.069253000000000 1
ion C   9.370680000000000   0.034201000000000  -0.009041000000000 1
ion C   7.075154000000000   4.159023999999999   0.127779000000000 1
ion C  -0.022701000000000  15.884873999999998   0.014058000000000 1
ion C   2.345669999999998  19.844860000000001  -0.008738000000000 1
ion C  11.754823999999999   3.972219000000000  -0.061467000000000 1
ion C   9.474065999999999   7.965336999999999   0.031145000000000 1
ion C   4.672960000000000  15.742636999999997   0.131413000000000 1
ion C   6.994077999999998  19.848969000000000  -0.009560000000000 1
ion C  16.396806999999999   3.952650000000000  -0.117268000000000 1
ion C  14.091600999999997   7.975181999999999  -0.185786000000000 1
ion C  11.776667999999997  11.974072999999997  -0.106194000000000 1
ion C   9.368933000000000  15.894161999999998   0.001774000000000 1
ion C  -0.012158000000000   2.713493999999999   0.016783000000000 1
ion C  -2.419282000000000   6.631670000000000  -0.093563000000000 1
ion C  -4.734741999999998  10.629464999999996  -0.182369000000000 1
ion C  -7.040802999999999  14.652294999999999  -0.117398000000000 1
ion C  -9.367925999999999  18.674710999999995  -0.007397000000000 1
ion C   4.682903000000000   2.862985999999999   0.136171000000000 1
ion C  -0.117862000000001  10.639429000000000   0.052470000000000 1
ion C  -2.398830999999999  14.632348000000000  -0.053465000000000 1
ion C  -4.719822000000000  18.677703999999999  -0.007916000000000 1
ion C   9.378834999999999   2.718497000000000   0.004888000000000 1
ion C   2.281378999999999  14.443429999999998   0.139804000000000 1
ion C  -0.014533999999999  18.569230999999995  -0.007310000000000 1
ion C  14.073459000000000   2.613322999999999  -0.072152000000000 1
ion C  11.780644000000001   6.641762999999999  -0.104464000000000 1
ion C   9.472170999999998  10.647114999999999   0.029198000000000 1
ion C   7.067373000000002  14.450573999999996   0.122891000000000 1
ion C   4.670753999999999  18.463232000000001   0.035124000000000 1
ion C  18.722289000000000   2.617312999999999  -0.069253000000000 1
ion C  16.395071000000002   6.626078999999999  -0.184877000000000 1
ion C  14.089552999999999  10.644006999999998  -0.186175000000000 1
ion C  11.746678999999999  14.643653999999998  -0.063500000000000 1
ion C   9.356669000000000  18.578344000000001  -0.010511000000000 1
ion N   2.171487999999998  11.843885000000000   0.285621000000000 1
ion N   7.181676000000000  11.851438999999997   0.255429000000000 1
ion N   2.175835000000000   6.758747999999999   0.289990000000000 1
ion N   7.185303000000001   6.758489999999999   0.260187000000000 1
ion Ti   4.700268000000000   9.307650999999998   1.879314000000000 1
ion-species /projects/musgravc/apps/jdftx-1.6.0/build/pseudopotentials/GBRV_v1.5/$ID_pbe_v1.uspp
ion-species /projects/musgravc/apps/jdftx-1.6.0/build/pseudopotentials/GBRV_v1.5/$ID_pbe_v1.2.uspp
ion-species /projects/musgravc/apps/jdftx-1.6.0/build/pseudopotentials/GBRV_v1.5/$ID_pbe_v1.4.uspp
ion-species /projects/musgravc/apps/jdftx-1.6.0/build/pseudopotentials/GBRV_v1.5/$ID_pbe_v1.5.uspp
ion-width Ecut
ionic-minimize  \
	dirUpdateScheme      L-BFGS \
	linminMethod         DirUpdateRecommended \
	nIterations          0 \
	history              15 \
	knormThreshold       0.0001 \
	energyDiffThreshold  1e-06 \
	nEnergyDiff          2 \
	alphaTstart          1 \
	alphaTmin            1e-10 \
	updateTestStepSize   yes \
	alphaTreduceFactor   0.1 \
	alphaTincreaseFactor 3 \
	nAlphaAdjustMax      3 \
	wolfeEnergy          0.0001 \
	wolfeGradient        0.9 \
	fdTest               no
kpoint   0.000000000000   0.000000000000   0.000000000000  1.00000000000000
kpoint-folding 3 3 1 
latt-move-scale 0 0 0
latt-scale 1 1 1 
lattice  \
	  23.429241999999999  -11.730003999999999    0.000000000000000  \
	   0.017901000000000   19.917916999999999    0.000000000000000  \
	   0.000000000000000    0.000000000000000   43.256312999999999 
lattice-minimize  \
	dirUpdateScheme      L-BFGS \
	linminMethod         DirUpdateRecommended \
	nIterations          0 \
	history              15 \
	knormThreshold       0 \
	energyDiffThreshold  1e-06 \
	nEnergyDiff          2 \
	alphaTstart          1 \
	alphaTmin            1e-10 \
	updateTestStepSize   yes \
	alphaTreduceFactor   0.1 \
	alphaTincreaseFactor 3 \
	nAlphaAdjustMax      3 \
	wolfeEnergy          0.0001 \
	wolfeGradient        0.9 \
	fdTest               no
lcao-params 30 1e-06 0.001
pcm-variant CANDLE
spintype z-spin
subspace-rotation-factor 1 yes
symmetries none
symmetry-threshold 0.0001
target-mu -0.1272 no

van-der-waals D3


Applied RMS atom displacement 0 bohrs to make symmetries exact.

---------- Initializing the Grid ----------
R = 
[      23.4292       -11.73            0  ]
[     0.017901      19.9179            0  ]
[            0            0      43.2563  ]
unit cell volume = 20195.1
G =
[   0.268056   0.157863         -0  ]
[ -0.000240913   0.315312          0  ]
[          0         -0   0.145255  ]
Minimum fftbox size, Smin = [  96  96  176  ]
Chosen fftbox size, S = [  96  96  180  ]

---------- Exchange Correlation functional ----------
Initalized PBE GGA exchange.
Initalized PBE GGA correlation.

---------- Setting up pseudopotentials ----------
Width of ionic core gaussian charges (only for fluid interactions / plotting) set to 0.397384

Reading pseudopotential file '/projects/musgravc/apps/jdftx-1.6.0/build/pseudopotentials/GBRV_v1.5/c_pbe_v1.2.uspp':
  Title: C.  Created by USPP 7.3.6 on 3-2-2014
  Reference state energy: -5.406344.  4 valence electrons in orbitals:
    |200>  occupation: 2  eigenvalue: -0.504890
    |210>  occupation: 2  eigenvalue: -0.194356
  lMax: 1  lLocal: 2  QijEcut: 5
  4 projectors sampled on a log grid with 503 points:
    l: 0  eig: -0.504890  rCut: 1.3
    l: 0  eig: 0.000000  rCut: 1.3
    l: 1  eig: -0.194357  rCut: 1.3
    l: 1  eig: 0.000000  rCut: 1.3
  Partial core density with radius 1.1
  Transforming core density to a uniform radial grid of dG=0.02 with 1465 points.
  Transforming local potential to a uniform radial grid of dG=0.02 with 1465 points.
  Transforming nonlocal projectors to a uniform radial grid of dG=0.02 with 432 points.
  Transforming density augmentations to a uniform radial grid of dG=0.02 with 1465 points.
  Transforming atomic orbitals to a uniform radial grid of dG=0.02 with 432 points.
  Core radius for overlap checks: 1.30 bohrs.

Reading pseudopotential file '/projects/musgravc/apps/jdftx-1.6.0/build/pseudopotentials/GBRV_v1.5/n_pbe_v1.2.uspp':
  Title: N.  Created by USPP 7.3.6 on 3-2-2014
  Reference state energy: -9.763716.  5 valence electrons in orbitals:
    |200>  occupation: 2  eigenvalue: -0.681964
    |210>  occupation: 3  eigenvalue: -0.260726
  lMax: 1  lLocal: 2  QijEcut: 6
  4 projectors sampled on a log grid with 491 points:
    l: 0  eig: -0.681964  rCut: 1.15
    l: 0  eig: 0.000000  rCut: 1.15
    l: 1  eig: -0.260729  rCut: 1.2
    l: 1  eig: 0.500000  rCut: 1.2
  Partial core density with radius 0.8
  Transforming core density to a uniform radial grid of dG=0.02 with 1465 points.
  Transforming local potential to a uniform radial grid of dG=0.02 with 1465 points.
  Transforming nonlocal projectors to a uniform radial grid of dG=0.02 with 432 points.
  Transforming density augmentations to a uniform radial grid of dG=0.02 with 1465 points.
  Transforming atomic orbitals to a uniform radial grid of dG=0.02 with 432 points.
  Core radius for overlap checks: 1.20 bohrs.

Reading pseudopotential file '/projects/musgravc/apps/jdftx-1.6.0/build/pseudopotentials/GBRV_v1.5/ti_pbe_v1.4.uspp':
  Title: Ti.  Created by USPP 7.3.6 on 31-3-15
  Reference state energy: -59.020943.  12 valence electrons in orbitals:
    |300>  occupation: 2  eigenvalue: -2.777623
    |310>  occupation: 6  eigenvalue: -1.894596
    |400>  occupation: 2  eigenvalue: -0.438610
    |320>  occupation: 1  eigenvalue: -0.583119
  lMax: 2  lLocal: 3  QijEcut: 6
  6 projectors sampled on a log grid with 597 points:
    l: 0  eig: -2.777624  rCut: 1.8
    l: 0  eig: -0.438611  rCut: 1.8
    l: 1  eig: -1.894596  rCut: 1.8
    l: 1  eig: 0.500000  rCut: 1.8
    l: 2  eig: -0.583118  rCut: 1.8
    l: 2  eig: 0.150000  rCut: 1.8
  Partial core density with radius 0.8
  Transforming core density to a uniform radial grid of dG=0.02 with 1465 points.
  Transforming local potential to a uniform radial grid of dG=0.02 with 1465 points.
  Transforming nonlocal projectors to a uniform radial grid of dG=0.02 with 432 points.
  Transforming density augmentations to a uniform radial grid of dG=0.02 with 1465 points.
  Transforming atomic orbitals to a uniform radial grid of dG=0.02 with 432 points.
  Core radius for overlap checks: 1.80 bohrs.

Initialized 3 species with 49 total atoms.

Folded 1 k-points by 3x3x1 to 9 k-points.

---------- Setting up k-points, bands, fillings ----------
No reducable k-points. 
Computing the number of bands and number of electrons
Calculating initial fillings.
nElectrons: 208.000000   nBands: 125   nStates: 18

----- Setting up reduced wavefunction bases (one per k-point) -----
average nbasis = 86283.667 , ideal nbasis = 86275.209

----- Initializing Supercell corresponding to k-point mesh -----
Lattice vector linear combinations in supercell:
[   3   0   0  ]
[   0   3   0  ]
[   0   0   1  ]
Supercell lattice vectors:
[  70.2877  -35.19  0  ]
[  0.053703  59.7538  0  ]
[  0  0  43.2563  ]

Initializing DFT-D3 calculator:
	Parameters set for gga-PBE functional
	s6:  1.000  s_r6:  1.217
	s8:  0.722  s_r8:  1.000
	Per-atom parameters loaded for:
	 C:  sqrtQ[a0]:  3.105  Rcov[a0]:  1.417  CN: [ 0.00 0.99 2.00 3.00 3.98 ]
	 N:  sqrtQ[a0]:  2.712  Rcov[a0]:  1.342  CN: [ 0.00 0.99 2.01 2.99 ]
	Ti:  sqrtQ[a0]:  6.288  Rcov[a0]:  2.305  CN: [ 0.00 1.83 3.87 ]

Initializing DFT-D2 calculator for fluid / solvation:
	 C:  C6:   30.35 Eh-a0^6  R0: 2.744 a0
	 N:  C6:   21.33 Eh-a0^6  R0: 2.640 a0
	Ti:  C6:  187.33 Eh-a0^6  R0: 2.952 a0

---------- Setting up ewald sum ----------
Optimum gaussian width for ewald sums = 5.679277 bohr.
Real space sum over 567 unit cells with max indices [  4  4  3  ]
Reciprocal space sum over 7803 terms with max indices [  8  8  13  ]

Computing DFT-D3 correction:
# coordination-number C 3.300 3.324 3.336 3.333 3.313 3.288 3.322 3.555 3.330 3.313 3.301 3.323 3.302 3.301 3.324 3.571 3.265 3.301 3.321 3.336 3.330 3.302 3.302 3.330 3.336 3.321 3.301 3.265 3.555 3.324 3.301 3.302 3.323 3.300 3.313 3.330 3.572 3.324 3.288 3.313 3.333 3.336 3.324 3.301
# coordination-number N 3.173 3.174 3.172 3.174
# coordination-number Ti 5.299
# diagonal-C6 C 24.28 24.04 23.91 23.94 24.15 24.39 24.06 20.86 23.98 24.15 24.28 24.05 24.26 24.27 24.04 20.64 24.59 24.27 24.07 23.91 23.98 24.26 24.26 23.98 23.91 24.07 24.27 24.59 20.85 24.04 24.27 24.26 24.05 24.28 24.15 23.98 20.63 24.04 24.39 24.15 23.94 23.91 24.04 24.28
# diagonal-C6 N 15.60 15.60 15.60 15.60
# diagonal-C6 Ti 321.59
EvdW_6 =   -0.036017
EvdW_8 =   -0.029680

---------- Allocating electronic variables ----------
Initializing wave functions:  linear combination of atomic orbitals
C pseudo-atom occupations:   s ( 2 )  p ( 2 )
N pseudo-atom occupations:   s ( 2 )  p ( 3 )
Ti pseudo-atom occupations:   s ( 2 0 )  p ( 6 )  d ( 4 )
	FillingsUpdate:  mu: -0.127200000  nElectrons: 208.000000  magneticMoment: [ Abs: 0.00428  Tot: -0.00000 ]
LCAOMinimize: Iter:   0  G: -318.6620157877247266  |grad|_K:  2.937e-03  alpha:  1.000e+00
	FillingsUpdate:  mu: -0.127200000  nElectrons: 208.000000  magneticMoment: [ Abs: 0.00422  Tot: +0.00001 ]
LCAOMinimize: Iter:   1  G: -318.9823166793581208  |grad|_K:  1.707e-03  alpha:  7.995e-02  linmin: -1.125e-01  cgtest:  1.379e+00  t[s]:    257.68
LCAOMinimize: Encountered beta<0, resetting CG.
LCAOMinimize: 	Predicted alpha/alphaT>3.000000, increasing alphaT to 2.398478e-01.
LCAOMinimize: 	Step increased G by 1.330038e+00, reducing alpha to 4.940446e-02.
	FillingsUpdate:  mu: -0.127200000  nElectrons: 208.000000  magneticMoment: [ Abs: 0.00420  Tot: +0.00001 ]
LCAOMinimize: Iter:   2  G: -319.0784829018813298  |grad|_K:  1.470e-03  alpha:  4.940e-02  linmin: -1.105e-01  cgtest:  1.039e+00  t[s]:    460.91
LCAOMinimize: Encountered beta<0, resetting CG.
LCAOMinimize: 	Predicted alpha/alphaT>3.000000, increasing alphaT to 1.482134e-01.
LCAOMinimize: 	Predicted alpha/alphaT>3.000000, increasing alphaT to 4.446402e-01.
LCAOMinimize: 	Step increased G by 2.158265e+01, reducing alpha to 7.438846e-02.
	FillingsUpdate:  mu: -0.127200000  nElectrons: 208.000000  magneticMoment: [ Abs: 0.00418  Tot: +0.00001 ]
LCAOMinimize: Iter:   3  G: -319.1894120681557752  |grad|_K:  1.294e-03  alpha:  7.439e-02  linmin: -1.228e-01  cgtest:  9.764e-01  t[s]:    690.24
LCAOMinimize: Encountered beta<0, resetting CG.
LCAOMinimize: 	Wrong curvature in test step, increasing alphaT to 2.231654e-01.
	FillingsUpdate:  mu: -0.127200000  nElectrons: 208.000000  magneticMoment: [ Abs: 0.00417  Tot: +0.00001 ]
LCAOMinimize: Iter:   4  G: -319.2823772888257849  |grad|_K:  1.237e-03  alpha: -6.865e+00  linmin: -1.361e-01  cgtest:  9.199e-01  t[s]:    789.56
	FillingsUpdate:  mu: -0.127200000  nElectrons: 208.000000  magneticMoment: [ Abs: 0.00416  Tot: +0.00001 ]
LCAOMinimize: Iter:   5  G: -319.3127810603112380  |grad|_K:  1.234e-03  alpha:  2.534e-02  linmin: -1.398e-01  cgtest:  9.628e-01  t[s]:    890.95
LCAOMinimize: 	Wrong curvature in test step, increasing alphaT to 7.602621e-02.
	FillingsUpdate:  mu: -0.127200000  nElectrons: 208.000000  magneticMoment: [ Abs: 0.00416  Tot: +0.00001 ]
LCAOMinimize: Iter:   6  G: -319.3431699504237145  |grad|_K:  1.237e-03  alpha: -5.540e-01  linmin: -1.446e-01  cgtest:  9.584e-01  t[s]:    990.39
	FillingsUpdate:  mu: -0.127200000  nElectrons: 208.000000  magneticMoment: [ Abs: 0.00416  Tot: +0.00001 ]
LCAOMinimize: Iter:   7  G: -319.3747157394092255  |grad|_K:  1.245e-03  alpha:  2.580e-02  linmin: -1.497e-01  cgtest:  9.531e-01  t[s]:   1091.66
LCAOMinimize: 	Wrong curvature in test step, increasing alphaT to 7.740241e-02.
	FillingsUpdate:  mu: -0.127200000  nElectrons: 208.000000  magneticMoment: [ Abs: 0.00416  Tot: +0.00002 ]
LCAOMinimize: Iter:   8  G: -319.4071604667593647  |grad|_K:  1.258e-03  alpha: -3.928e-01  linmin: -1.549e-01  cgtest:  9.486e-01  t[s]:   1191.15
	FillingsUpdate:  mu: -0.127200000  nElectrons: 208.000000  magneticMoment: [ Abs: 0.00416  Tot: +0.00002 ]
LCAOMinimize: Iter:   9  G: -319.4426929338254126  |grad|_K:  1.276e-03  alpha:  2.726e-02  linmin: -1.606e-01  cgtest:  9.411e-01  t[s]:   1292.77
LCAOMinimize: 	Wrong curvature in test step, increasing alphaT to 8.179250e-02.
	FillingsUpdate:  mu: -0.127200000  nElectrons: 208.000000  magneticMoment: [ Abs: 0.00416  Tot: +0.00002 ]
LCAOMinimize: Iter:  10  G: -319.4798830180200753  |grad|_K:  1.298e-03  alpha: -3.142e-01  linmin: -1.666e-01  cgtest:  9.362e-01  t[s]:   1391.90
	FillingsUpdate:  mu: -0.127200000  nElectrons: 208.000000  magneticMoment: [ Abs: 0.00416  Tot: +0.00002 ]
LCAOMinimize: Iter:  11  G: -319.5224474577947831  |grad|_K:  1.325e-03  alpha:  2.964e-02  linmin: -1.734e-01  cgtest:  9.255e-01  t[s]:   1493.24
LCAOMinimize: 	Wrong curvature in test step, increasing alphaT to 8.891830e-02.
	FillingsUpdate:  mu: -0.127200000  nElectrons: 208.000000  magneticMoment: [ Abs: 0.00417  Tot: +0.00002 ]
LCAOMinimize: Iter:  12  G: -319.5678301939532844  |grad|_K:  1.356e-03  alpha: -2.652e-01  linmin: -1.805e-01  cgtest:  9.194e-01  t[s]:   1592.56
	FillingsUpdate:  mu: -0.127200000  nElectrons: 208.000000  magneticMoment: [ Abs: 0.00417  Tot: +0.00002 ]
LCAOMinimize: Iter:  13  G: -319.6221971373307156  |grad|_K:  1.394e-03  alpha:  3.316e-02  linmin: -1.886e-01  cgtest:  9.029e-01  t[s]:   1693.91
LCAOMinimize: 	Wrong curvature in test step, increasing alphaT to 9.949041e-02.
	FillingsUpdate:  mu: -0.127200000  nElectrons: 208.000000  magneticMoment: [ Abs: 0.00417  Tot: +0.00002 ]
LCAOMinimize: Iter:  14  G: -319.6814078466544515  |grad|_K:  1.432e-03  alpha: -2.275e-01  linmin: -1.966e-01  cgtest:  8.931e-01  t[s]:   1793.22
	FillingsUpdate:  mu: -0.127200000  nElectrons: 208.000000  magneticMoment: [ Abs: 0.00418  Tot: +0.00002 ]
LCAOMinimize: Iter:  15  G: -319.7559783832913354  |grad|_K:  1.475e-03  alpha:  3.825e-02  linmin: -2.052e-01  cgtest:  8.637e-01  t[s]:   1894.30
LCAOMinimize: 	Wrong curvature in test step, increasing alphaT to 1.147454e-01.
	FillingsUpdate:  mu: -0.127200000  nElectrons: 208.000000  magneticMoment: [ Abs: 0.00418  Tot: +0.00002 ]
LCAOMinimize: Iter:  16  G: -319.8392214380932614  |grad|_K:  1.509e-03  alpha: -1.927e-01  linmin: -2.123e-01  cgtest:  8.410e-01  t[s]:   1993.05
	FillingsUpdate:  mu: -0.127200000  nElectrons: 208.000000  magneticMoment: [ Abs: 0.00419  Tot: +0.00002 ]
LCAOMinimize: Iter:  17  G: -319.9486783088742641  |grad|_K:  1.496e-03  alpha:  4.530e-02  linmin: -2.195e-01  cgtest:  7.781e-01  t[s]:   2094.42
LCAOMinimize: 	Wrong curvature in test step, increasing alphaT to 1.359049e-01.
	FillingsUpdate:  mu: -0.127200000  nElectrons: 208.000000  magneticMoment: [ Abs: 0.00421  Tot: +0.00004 ]
LCAOMinimize: Iter:  18  G: -320.0678659772797801  |grad|_K:  1.561e-03  alpha: -1.271e-01  linmin: -1.877e-01  cgtest:  5.681e-01  t[s]:   2193.41
LCAOMinimize: 	Step increased G by 7.444652e-01, reducing alpha to 7.726821e-03.
	FillingsUpdate:  mu: -0.127200000  nElectrons: 208.000000  magneticMoment: [ Abs: 0.00422  Tot: +0.00003 ]
LCAOMinimize: Iter:  19  G: -320.1024467873666595  |grad|_K:  1.500e-03  alpha:  7.727e-03  linmin: -1.420e-01  cgtest:  7.221e-01  t[s]:   2369.57
LCAOMinimize: 	Predicted alpha/alphaT>3.000000, increasing alphaT to 2.318046e-02.
	FillingsUpdate:  mu: -0.127200000  nElectrons: 208.000000  magneticMoment: [ Abs: 0.00425  Tot: -0.00007 ]
LCAOMinimize: Iter:  20  G: -320.1335357516475142  |grad|_K:  3.010e-04  alpha:  1.563e-02  linmin: -1.291e-01  cgtest:  5.356e-01  t[s]:   2498.13
LCAOMinimize: Encountered beta<0, resetting CG.
LCAOMinimize: 	Predicted alpha/alphaT>3.000000, increasing alphaT to 4.688429e-02.
	FillingsUpdate:  mu: -0.127200000  nElectrons: 208.000000  magneticMoment: [ Abs: 0.00431  Tot: -0.00015 ]
LCAOMinimize: Iter:  21  G: -320.1357764296841424  |grad|_K:  4.126e-04  alpha:  6.738e-02  linmin:  1.109e-03  cgtest:  2.360e-02  t[s]:   2625.49
	FillingsUpdate:  mu: -0.127200000  nElectrons: 208.000000  magneticMoment: [ Abs: 0.00450  Tot: -0.00029 ]
LCAOMinimize: Iter:  22  G: -320.1403690146780150  |grad|_K:  1.041e-04  alpha:  7.697e-02  linmin:  4.455e-02  cgtest: -6.811e-01  t[s]:   2727.00
	FillingsUpdate:  mu: -0.127200000  nElectrons: 208.000000  magneticMoment: [ Abs: 0.00457  Tot: -0.00037 ]
LCAOMinimize: Iter:  23  G: -320.1403809933166826  |grad|_K:  9.423e-05  alpha:  1.983e-02  linmin: -4.352e-03  cgtest:  9.462e-01  t[s]:   2828.41
LCAOMinimize: Encountered beta<0, resetting CG.
	FillingsUpdate:  mu: -0.127200000  nElectrons: 208.000000  magneticMoment: [ Abs: 0.00471  Tot: -0.00051 ]
LCAOMinimize: Iter:  24  G: -320.1405384766773068  |grad|_K:  8.079e-05  alpha:  3.627e-02  linmin: -1.385e-01  cgtest:  8.544e-01  t[s]:   2930.77
	FillingsUpdate:  mu: -0.127200000  nElectrons: 208.000000  magneticMoment: [ Abs: 0.00523  Tot: -0.00103 ]
LCAOMinimize: Iter:  25  G: -320.1408506135526864  |grad|_K:  9.908e-05  alpha:  1.070e-01  linmin: -1.591e-02  cgtest:  2.462e-01  t[s]:   3032.43
	FillingsUpdate:  mu: -0.127200000  nElectrons: 208.000000  magneticMoment: [ Abs: 0.00585  Tot: -0.00166 ]
LCAOMinimize: Iter:  26  G: -320.1409534679377771  |grad|_K:  4.396e-05  alpha:  3.626e-02  linmin: -4.611e-02  cgtest: -1.191e-02  t[s]:   3133.99
	FillingsUpdate:  mu: -0.127200000  nElectrons: 208.000000  magneticMoment: [ Abs: 0.00754  Tot: -0.00333 ]
LCAOMinimize: Iter:  27  G: -320.1410650252869914  |grad|_K:  3.609e-05  alpha:  8.742e-02  linmin: -5.279e-02  cgtest:  3.971e-01  t[s]:   3235.04
	FillingsUpdate:  mu: -0.127200000  nElectrons: 208.000000  magneticMoment: [ Abs: 0.00960  Tot: -0.00536 ]
LCAOMinimize: Iter:  28  G: -320.1410861685083091  |grad|_K:  3.494e-05  alpha:  5.090e-02  linmin: -3.831e-02  cgtest:  3.319e-01  t[s]:   3336.37
LCAOMinimize: 	Wrong curvature in test step, increasing alphaT to 1.526981e-01.
	FillingsUpdate:  mu: -0.127200000  nElectrons: 208.000000  magneticMoment: [ Abs: 0.01351  Tot: -0.00914 ]
LCAOMinimize: Iter:  29  G: -320.1411581361620620  |grad|_K:  2.570e-05  alpha: -4.840e-01  linmin: -9.392e-02  cgtest:  5.846e-01  t[s]:   3435.25
	FillingsUpdate:  mu: -0.127200000  nElectrons: 208.000000  magneticMoment: [ Abs: 0.04091  Tot: -0.03508 ]
LCAOMinimize: Iter:  30  G: -320.1412209845330494  |grad|_K:  7.723e-05  alpha:  2.643e-01  linmin: -2.749e-03  cgtest: -1.686e-02  t[s]:   3537.15
LCAOMinimize: None of the convergence criteria satisfied after 30 iterations.
----- createFluidSolver() ----- (Fluid-side solver setup)
   Initializing fluid molecule 'H2O'
     Initializing site 'O'
       Electron density: proportional to exp(-r/0.36935)*erfc((r-0.51523)/0.36823) with norm 6.826
       Charge density: gaussian nuclear width 0.478731 with net site charge 0.826
       Polarizability: cuspless exponential with width 0.32 and norm 3.73
       Hard sphere radius: 2.57003 bohrs
       Positions in reference frame:
         [ +0.000000 +0.000000 +0.000000 ]
     Initializing site 'H'
       Electron density: proportional to exp(-r/0.34641)*erfc((r-0)/0.390882) with norm 0.587
       Charge density: gaussian nuclear width 0.377945 with net site charge -0.413
       Polarizability: cuspless exponential with width 0.39 and norm 3.3
       Positions in reference frame:
         [ +0.000000 -1.441945 +1.122523 ]
         [ +0.000000 +1.441945 +1.122523 ]
     Net charge: 0   dipole magnitude: 0.927204
     Initializing spherical shell mfKernel with radius 2.61727 Bohr
     deltaS corrections:
       site 'O': -7.54299
       site 'H': -6.83917
   Initializing fluid molecule 'Na+'
     Initializing site 'Na'
       Electron density: proportional to exp(-r/0.19682)*erfc((r-0.71491)/0.41314) with norm 8.1383
       Charge density: gaussian nuclear width 0.365347 with net site charge -1
       Hard sphere radius: 1.86327 bohrs
       Positions in reference frame:
         [ +0.000000 +0.000000 +0.000000 ]
     Net charge: -1   dipole magnitude: 0
     Initializing gaussian mfKernel with width: 1.55004 Bohr
     deltaS corrections:
       site 'Na': -22.3555
   Initializing fluid molecule 'F-'
     Initializing site 'F'
       Electron density: proportional to exp(-r/0.38886)*erfc((r-0)/0.438782) with norm 8
       Charge density: gaussian nuclear width 0.374796 with net site charge 1
       Hard sphere radius: 2.39995 bohrs
       Positions in reference frame:
         [ +0.000000 +0.000000 +0.000000 ]
     Net charge: 1   dipole magnitude: 0
     Initializing gaussian mfKernel with width: 1.59012 Bohr
     deltaS corrections:
       site 'F': -9.04335

Correction to mu due to finite nuclear width = -0.0102192
   Cavity determined by nc: 0.00142 and sigma: 0.707107
   Nonlocal vdW cavity from gaussian model electron density with norm = 8 and sigma = 0.993594 bohr
   Charge asymmetry in cavity with sensitivity pCavity = 36.5 e-bohr/Eh
   Electrostatic cavity expanded by eta = 1.46 bohrs
   Weighted density cavitation model constrained by Nbulk: 0.0049383 bohr^-3, Pvap: 3.14029 kPa, Rvdw: 2.61727 bohr and sigmaBulk: 4.62e-05 Eh/bohr^2 at T: 298 K.
   Weighted density dispersion model using vdW pair potentials with single solvent site with sqrtC6eff: 0.77 SI.


---- Citations for features of the code used in this run ----

   Software package:
      R. Sundararaman, K. Letchworth-Weaver, K.A. Schwarz, D. Gunceler, Y. Ozhabes and T.A. Arias, 'JDFTx: software for joint density-functional theory', SoftwareX 6, 278 (2017)

   gga-PBE exchange-correlation functional:
      J.P. Perdew, K. Burke and M. Ernzerhof, Phys. Rev. Lett. 77, 3865 (1996)

   Pseudopotentials:
      KF Garrity, JW Bennett, KM Rabe and D Vanderbilt, Comput. Mater. Sci. 81, 446 (2014)

   DFT-D3 dispersion correction:
      S. Grimme, J. Antony, S. Ehrlich and H. Krieg, J. Chem. Phys. 132, 154104 (2010)

   DFT-D2 dispersion correction:
      S. Grimme, J. Comput. Chem. 27, 1787 (2006)

   Charge-asymmetric nonlocally-determined local-electric (CANDLE) solvation model:
      R. Sundararaman and W.A. Goddard III, J. Chem. Phys. 142, 064107 (2015)

   Total energy minimization with Auxiliary Hamiltonian:
      C. Freysoldt, S. Boeck, and J. Neugebauer, Phys. Rev. B 79, 241103(R) (2009)

   Grand-canonical (fixed-potential) DFT:
      R. Sundararaman, W. A. Goddard III and T. A. Arias, J. Chem. Phys. 146, 114104 (2017)

   Linear-tetrahedron sampling for density of states:
      G. Lehmann and M. Taut, Phys. status solidi (b) 54, 469 (1972)

This list may not be complete. Please suggest additional citations or
report any other bugs at https://github.com/shankar1729/jdftx/issues

Initialization completed successfully at t[s]:   3549.92


Computing DFT-D3 correction:
# coordination-number C 3.300 3.324 3.336 3.333 3.313 3.288 3.322 3.555 3.330 3.313 3.301 3.323 3.302 3.301 3.324 3.571 3.265 3.301 3.321 3.336 3.330 3.302 3.302 3.330 3.336 3.321 3.301 3.265 3.555 3.324 3.301 3.302 3.323 3.300 3.313 3.330 3.572 3.324 3.288 3.313 3.333 3.336 3.324 3.301
# coordination-number N 3.173 3.174 3.172 3.174
# coordination-number Ti 5.299
# diagonal-C6 C 24.28 24.04 23.91 23.94 24.15 24.39 24.06 20.86 23.98 24.15 24.28 24.05 24.26 24.27 24.04 20.64 24.59 24.27 24.07 23.91 23.98 24.26 24.26 23.98 23.91 24.07 24.27 24.59 20.85 24.04 24.27 24.26 24.05 24.28 24.15 23.98 20.63 24.04 24.39 24.15 23.94 23.91 24.04 24.28
# diagonal-C6 N 15.60 15.60 15.60 15.60
# diagonal-C6 Ti 321.59
EvdW_6 =   -0.036017
EvdW_8 =   -0.029680
Fluid solver invoked on fresh (random / LCAO) wavefunctions
Running a vacuum solve first:

-------- Initial electronic minimization -----------
	FillingsUpdate:  mu: -0.173570515  nElectrons: 208.000000  magneticMoment: [ Abs: 0.04091  Tot: -0.03508 ]
ElecMinimize: Iter:   0  G: -320.140966348645406  |grad|_K:  1.422e-04  alpha:  1.000e+00
	FillingsUpdate:  mu: -0.151752153  nElectrons: 208.000000  magneticMoment: [ Abs: 0.12674  Tot: -0.11620 ]
	SubspaceRotationAdjust: set factor to 0.582
ElecMinimize: Iter:   1  G: -322.742845400188060  |grad|_K:  1.158e-04  alpha:  6.741e-01  linmin:  9.562e-05  t[s]:   3706.73
ElecMinimize: 	Step increased G by 1.124616e-01, reducing alpha to 6.980834e-03.
	FillingsUpdate:  mu: -0.150925948  nElectrons: 208.000000  magneticMoment: [ Abs: 0.18516  Tot: -0.16934 ]
	SubspaceRotationAdjust: set factor to 0.381
ElecMinimize: Iter:   2  G: -322.777794471293589  |grad|_K:  8.548e-05  alpha:  6.981e-03  linmin: -1.131e-02  t[s]:   3865.37
ElecMinimize: 	Wrong curvature in test step, increasing alphaT to 2.094250e-02.
	FillingsUpdate:  mu: -0.150533837  nElectrons: 208.000000  magneticMoment: [ Abs: 0.26930  Tot: -0.24629 ]
	SubspaceRotationAdjust: set factor to 0.311
ElecMinimize: Iter:   3  G: -322.817692130324531  |grad|_K:  6.247e-05  alpha: -1.037e+00  linmin: -1.143e-02  t[s]:   3952.69
ElecMinimize: 	Step increased G by 2.222726e-01, reducing alpha to 9.918571e-03.
	FillingsUpdate:  mu: -0.090448695  nElectrons: 208.000000  magneticMoment: [ Abs: 0.38365  Tot: -0.35954 ]
	SubspaceRotationAdjust: set factor to 0.532
ElecMinimize: Iter:   4  G: -322.851570992756876  |grad|_K:  4.023e-05  alpha:  9.919e-03  linmin: -6.604e-03  t[s]:   4111.15
	FillingsUpdate:  mu: -0.053149624  nElectrons: 208.000000  magneticMoment: [ Abs: 0.49558  Tot: -0.47906 ]
	SubspaceRotationAdjust: set factor to 0.473
ElecMinimize: Iter:   5  G: -322.868831345637489  |grad|_K:  4.289e-05  alpha:  2.020e-02  linmin: -6.969e-04  t[s]:   4206.52
	FillingsUpdate:  mu: -0.054442342  nElectrons: 208.000000  magneticMoment: [ Abs: 0.65438  Tot: -0.64316 ]
	SubspaceRotationAdjust: set factor to 0.316
ElecMinimize: Iter:   6  G: -322.882720359791961  |grad|_K:  6.280e-05  alpha:  2.903e-02  linmin: -3.387e-04  t[s]:   4302.00
	FillingsUpdate:  mu: -0.056854988  nElectrons: 208.000000  magneticMoment: [ Abs: 0.79692  Tot: -0.77671 ]
	SubspaceRotationAdjust: set factor to 0.184
ElecMinimize: Iter:   7  G: -322.913236116486473  |grad|_K:  7.979e-05  alpha:  3.363e-02  linmin: -5.205e-05  t[s]:   4397.17
	FillingsUpdate:  mu: -0.057716304  nElectrons: 208.000000  magneticMoment: [ Abs: 0.93773  Tot: -0.91377 ]
	SubspaceRotationAdjust: set factor to 0.121
	SubspaceRotationAdjust: resetting CG because factor has changed by 0.120569
ElecMinimize: 	State modified externally: resetting search direction.
ElecMinimize: Iter:   8  G: -322.944641168301871  |grad|_K:  5.621e-05  alpha:  2.324e-02
ElecMinimize: 	Predicted alpha/alphaT>3.000000, increasing alphaT to 6.971670e-02.
	FillingsUpdate:  mu: -0.054774023  nElectrons: 208.000000  magneticMoment: [ Abs: 1.01165  Tot: -0.97987 ]
	SubspaceRotationAdjust: set factor to 0.12
ElecMinimize: Iter:   9  G: -323.038881391971017  |grad|_K:  2.204e-05  alpha:  1.326e-01  linmin: -2.175e-02  t[s]:   4667.35
	FillingsUpdate:  mu: -0.069196298  nElectrons: 208.000000  magneticMoment: [ Abs: 0.89371  Tot: -0.84855 ]
	SubspaceRotationAdjust: set factor to 0.0816
ElecMinimize: Iter:  10  G: -323.069145209817691  |grad|_K:  1.359e-05  alpha:  2.475e-01  linmin:  2.150e-03  t[s]:   4762.54
	FillingsUpdate:  mu: -0.103940399  nElectrons: 208.000000  magneticMoment: [ Abs: 0.79783  Tot: -0.72289 ]
	SubspaceRotationAdjust: set factor to 0.0624
ElecMinimize: Iter:  11  G: -323.083211057071765  |grad|_K:  1.607e-05  alpha:  4.735e-01  linmin:  3.541e-04  t[s]:   4857.78
	FillingsUpdate:  mu: -0.078512356  nElectrons: 208.000000  magneticMoment: [ Abs: 0.87297  Tot: -0.78489 ]
	SubspaceRotationAdjust: set factor to 0.0979
ElecMinimize: Iter:  12  G: -323.095500143931588  |grad|_K:  9.972e-06  alpha:  2.592e-01  linmin:  1.820e-05  t[s]:   4953.02
	FillingsUpdate:  mu: -0.057007058  nElectrons: 208.000000  magneticMoment: [ Abs: 0.98306  Tot: -0.89004 ]
	SubspaceRotationAdjust: set factor to 0.0981
ElecMinimize: Iter:  13  G: -323.103004133515810  |grad|_K:  7.012e-06  alpha:  3.768e-01  linmin: -4.035e-04  t[s]:   5048.10
	FillingsUpdate:  mu: -0.058798924  nElectrons: 208.000000  magneticMoment: [ Abs: 1.02141  Tot: -0.92180 ]
	SubspaceRotationAdjust: set factor to 0.109
ElecMinimize: Iter:  14  G: -323.106141115042760  |grad|_K:  3.765e-06  alpha:  3.015e-01  linmin:  1.761e-05  t[s]:   5143.32
	FillingsUpdate:  mu: -0.062623328  nElectrons: 208.000000  magneticMoment: [ Abs: 1.06307  Tot: -0.95222 ]
	SubspaceRotationAdjust: set factor to 0.12
ElecMinimize: Iter:  15  G: -323.107905324066337  |grad|_K:  3.903e-06  alpha:  6.481e-01  linmin:  3.130e-05  t[s]:   5238.69
	FillingsUpdate:  mu: -0.060215314  nElectrons: 208.000000  magneticMoment: [ Abs: 1.10792  Tot: -0.98498 ]
	SubspaceRotationAdjust: set factor to 0.145
ElecMinimize: Iter:  16  G: -323.109007486757378  |grad|_K:  2.616e-06  alpha:  3.882e-01  linmin:  8.675e-06  t[s]:   5333.95
	FillingsUpdate:  mu: -0.057516606  nElectrons: 208.000000  magneticMoment: [ Abs: 1.16147  Tot: -1.02432 ]
	SubspaceRotationAdjust: set factor to 0.166
ElecMinimize: Iter:  17  G: -323.109869125075818  |grad|_K:  3.102e-06  alpha:  6.488e-01  linmin: -1.150e-06  t[s]:   5428.97
	FillingsUpdate:  mu: -0.058413104  nElectrons: 208.000000  magneticMoment: [ Abs: 1.27496  Tot: -1.12467 ]
	SubspaceRotationAdjust: set factor to 0.205
ElecMinimize: Iter:  18  G: -323.110991108465782  |grad|_K:  3.341e-06  alpha:  5.992e-01  linmin:  2.765e-07  t[s]:   5524.02
	FillingsUpdate:  mu: -0.056576162  nElectrons: 208.000000  magneticMoment: [ Abs: 1.46013  Tot: -1.30396 ]
	SubspaceRotationAdjust: set factor to 0.191
ElecMinimize: Iter:  19  G: -323.112128914033292  |grad|_K:  5.005e-06  alpha:  4.114e-01  linmin:  2.491e-05  t[s]:   5619.20
	FillingsUpdate:  mu: -0.056229697  nElectrons: 208.000000  magneticMoment: [ Abs: 1.53261  Tot: -1.37255 ]
	SubspaceRotationAdjust: set factor to 0.16
ElecMinimize: Iter:  20  G: -323.112492876237695  |grad|_K:  5.503e-06  alpha:  5.983e-02  linmin: -2.655e-04  t[s]:   5716.69
ElecMinimize: 	Predicted alpha/alphaT>3.000000, increasing alphaT to 1.794985e-01.
	FillingsUpdate:  mu: -0.062349351  nElectrons: 208.000000  magneticMoment: [ Abs: 1.65755  Tot: -1.47931 ]
	SubspaceRotationAdjust: set factor to 0.25
ElecMinimize: Iter:  21  G: -323.114108103889123  |grad|_K:  4.597e-06  alpha:  1.127e-01  linmin: -1.671e-04  t[s]:   5846.30
	FillingsUpdate:  mu: -0.066591415  nElectrons: 208.000000  magneticMoment: [ Abs: 1.67112  Tot: -1.48861 ]
	SubspaceRotationAdjust: set factor to 0.286
ElecMinimize: Iter:  22  G: -323.114379351048854  |grad|_K:  4.586e-06  alpha:  3.603e-02  linmin: -1.199e-04  t[s]:   5950.90
	FillingsUpdate:  mu: -0.070139916  nElectrons: 208.000000  magneticMoment: [ Abs: 1.67888  Tot: -1.49304 ]
	SubspaceRotationAdjust: set factor to 0.308
ElecMinimize: Iter:  23  G: -323.114540490020147  |grad|_K:  4.671e-06  alpha:  2.923e-02  linmin:  1.248e-05  t[s]:   6055.92
	FillingsUpdate:  mu: -0.072082647  nElectrons: 208.000000  magneticMoment: [ Abs: 1.68387  Tot: -1.49570 ]
	SubspaceRotationAdjust: set factor to 0.357
ElecMinimize: Iter:  24  G: -323.114614561215035  |grad|_K:  4.891e-06  alpha:  1.749e-02  linmin: -4.197e-06  t[s]:   6161.48
	FillingsUpdate:  mu: -0.073896839  nElectrons: 208.000000  magneticMoment: [ Abs: 1.69032  Tot: -1.49924 ]
	SubspaceRotationAdjust: set factor to 0.453
ElecMinimize: Iter:  25  G: -323.114691871361515  |grad|_K:  5.218e-06  alpha:  1.644e-02  linmin:  7.658e-06  t[s]:   6267.70
	FillingsUpdate:  mu: -0.075145732  nElectrons: 208.000000  magneticMoment: [ Abs: 1.69839  Tot: -1.50383 ]
	SubspaceRotationAdjust: set factor to 0.428
ElecMinimize: Iter:  26  G: -323.114763861900769  |grad|_K:  5.665e-06  alpha:  1.375e-02  linmin:  3.394e-06  t[s]:   6373.79
	FillingsUpdate:  mu: -0.075747463  nElectrons: 208.000000  magneticMoment: [ Abs: 1.70862  Tot: -1.50967 ]
	SubspaceRotationAdjust: set factor to 0.369
ElecMinimize: Iter:  27  G: -323.114835122025283  |grad|_K:  5.537e-06  alpha:  1.147e-02  linmin:  1.014e-06  t[s]:   6479.63
	FillingsUpdate:  mu: -0.075724509  nElectrons: 208.000000  magneticMoment: [ Abs: 1.72006  Tot: -1.51602 ]
	SubspaceRotationAdjust: set factor to 0.322
ElecMinimize: Iter:  28  G: -323.114901480165088  |grad|_K:  5.056e-06  alpha:  1.116e-02  linmin: -3.423e-06  t[s]:   6585.57
	FillingsUpdate:  mu: -0.075206288  nElectrons: 208.000000  magneticMoment: [ Abs: 1.73175  Tot: -1.52216 ]
	SubspaceRotationAdjust: set factor to 0.303
ElecMinimize: Iter:  29  G: -323.114961362622978  |grad|_K:  4.535e-06  alpha:  1.201e-02  linmin: -1.313e-05  t[s]:   6691.65
	FillingsUpdate:  mu: -0.074345722  nElectrons: 208.000000  magneticMoment: [ Abs: 1.74328  Tot: -1.52777 ]
	SubspaceRotationAdjust: set factor to 0.321
ElecMinimize: Iter:  30  G: -323.115015783516981  |grad|_K:  4.149e-06  alpha:  1.347e-02  linmin: -2.543e-05  t[s]:   6798.02
	FillingsUpdate:  mu: -0.073289222  nElectrons: 208.000000  magneticMoment: [ Abs: 1.75469  Tot: -1.53278 ]
	SubspaceRotationAdjust: set factor to 0.391
ElecMinimize: Iter:  31  G: -323.115067045833598  |grad|_K:  3.961e-06  alpha:  1.507e-02  linmin: -3.872e-05  t[s]:   6904.42
	FillingsUpdate:  mu: -0.072135557  nElectrons: 208.000000  magneticMoment: [ Abs: 1.76633  Tot: -1.53726 ]
	SubspaceRotationAdjust: set factor to 0.534
ElecMinimize: Iter:  32  G: -323.115118128113238  |grad|_K:  3.968e-06  alpha:  1.643e-02  linmin: -4.450e-05  t[s]:   7011.30
	FillingsUpdate:  mu: -0.070828731  nElectrons: 208.000000  magneticMoment: [ Abs: 1.77857  Tot: -1.54121 ]
	SubspaceRotationAdjust: set factor to 0.699
ElecMinimize: Iter:  33  G: -323.115172272518066  |grad|_K:  4.162e-06  alpha:  1.733e-02  linmin: -2.981e-05  t[s]:   7117.53
	FillingsUpdate:  mu: -0.069155260  nElectrons: 208.000000  magneticMoment: [ Abs: 1.79168  Tot: -1.54451 ]
	SubspaceRotationAdjust: set factor to 0.908
	SubspaceRotationAdjust: resetting CG because factor has changed by 7.52967
ElecMinimize: 	State modified externally: resetting search direction.
ElecMinimize: Iter:  34  G: -323.115232997180271  |grad|_K:  4.727e-06  alpha:  1.769e-02
ElecMinimize: 	Predicted alpha/alphaT>3.000000, increasing alphaT to 5.306758e-02.
ElecMinimize: 	Predicted alpha/alphaT>3.000000, increasing alphaT to 1.592027e-01.
	FillingsUpdate:  mu: -0.079125839  nElectrons: 208.000000  magneticMoment: [ Abs: 1.73857  Tot: -1.48920 ]
	SubspaceRotationAdjust: set factor to 0.518
ElecMinimize: Iter:  35  G: -323.116713721351175  |grad|_K:  9.267e-06  alpha:  4.581e-01  linmin:  9.000e-04  t[s]:   7448.49
	FillingsUpdate:  mu: -0.075329626  nElectrons: 208.000000  magneticMoment: [ Abs: 1.74580  Tot: -1.47330 ]
	SubspaceRotationAdjust: set factor to 0.529
ElecMinimize: Iter:  36  G: -323.117103316488397  |grad|_K:  5.852e-06  alpha:  7.863e-02  linmin:  1.799e-04  t[s]:   7555.62
	FillingsUpdate:  mu: -0.066165601  nElectrons: 208.000000  magneticMoment: [ Abs: 1.77213  Tot: -1.48414 ]
	SubspaceRotationAdjust: set factor to 0.551
ElecMinimize: Iter:  37  G: -323.117507089536616  |grad|_K:  3.585e-06  alpha:  7.383e-02  linmin: -3.856e-05  t[s]:   7663.10
	FillingsUpdate:  mu: -0.062250602  nElectrons: 208.000000  magneticMoment: [ Abs: 1.79434  Tot: -1.49317 ]
	SubspaceRotationAdjust: set factor to 0.334
ElecMinimize: Iter:  38  G: -323.117904593362368  |grad|_K:  4.149e-06  alpha:  1.530e-01  linmin: -5.387e-05  t[s]:   7770.35
	FillingsUpdate:  mu: -0.064076261  nElectrons: 208.000000  magneticMoment: [ Abs: 1.78438  Tot: -1.47765 ]
	SubspaceRotationAdjust: set factor to 0.319
ElecMinimize: Iter:  39  G: -323.118484509951031  |grad|_K:  2.798e-06  alpha:  1.710e-01  linmin:  6.494e-05  t[s]:   7877.42
	FillingsUpdate:  mu: -0.069392849  nElectrons: 208.000000  magneticMoment: [ Abs: 1.76689  Tot: -1.46334 ]
	SubspaceRotationAdjust: set factor to 0.309
ElecMinimize: Iter:  40  G: -323.118672553451859  |grad|_K:  2.103e-06  alpha:  1.210e-01  linmin:  3.808e-05  t[s]:   7983.82
	FillingsUpdate:  mu: -0.074923967  nElectrons: 208.000000  magneticMoment: [ Abs: 1.75841  Tot: -1.45800 ]
	SubspaceRotationAdjust: set factor to 0.195
ElecMinimize: Iter:  41  G: -323.118859297334893  |grad|_K:  3.039e-06  alpha:  2.261e-01  linmin:  8.657e-04  t[s]:   8089.55
	FillingsUpdate:  mu: -0.074659611  nElectrons: 208.000000  magneticMoment: [ Abs: 1.77173  Tot: -1.47190 ]
	SubspaceRotationAdjust: set factor to 0.176
ElecMinimize: Iter:  42  G: -323.119142446300827  |grad|_K:  2.713e-06  alpha:  1.693e-01  linmin: -3.421e-05  t[s]:   8194.04
	FillingsUpdate:  mu: -0.069366741  nElectrons: 208.000000  magneticMoment: [ Abs: 1.79369  Tot: -1.49116 ]
	SubspaceRotationAdjust: set factor to 0.227
ElecMinimize: Iter:  43  G: -323.119363880856611  |grad|_K:  1.701e-06  alpha:  1.554e-01  linmin: -3.582e-04  t[s]:   8296.57
	FillingsUpdate:  mu: -0.066333141  nElectrons: 208.000000  magneticMoment: [ Abs: 1.80456  Tot: -1.50033 ]
	SubspaceRotationAdjust: set factor to 0.223
ElecMinimize: Iter:  44  G: -323.119471904337331  |grad|_K:  1.452e-06  alpha:  1.864e-01  linmin: -2.296e-04  t[s]:   8396.36
	FillingsUpdate:  mu: -0.066382727  nElectrons: 208.000000  magneticMoment: [ Abs: 1.80157  Tot: -1.50050 ]
	SubspaceRotationAdjust: set factor to 0.234
ElecMinimize: Iter:  45  G: -323.119587935774291  |grad|_K:  1.403e-06  alpha:  2.795e-01  linmin:  1.277e-05  t[s]:   8493.58
	FillingsUpdate:  mu: -0.068835722  nElectrons: 208.000000  magneticMoment: [ Abs: 1.79067  Tot: -1.49474 ]
	SubspaceRotationAdjust: set factor to 0.248
ElecMinimize: Iter:  46  G: -323.119654094549901  |grad|_K:  9.175e-07  alpha:  1.715e-01  linmin: -7.606e-06  t[s]:   8589.72
	FillingsUpdate:  mu: -0.070818338  nElectrons: 208.000000  magneticMoment: [ Abs: 1.78436  Tot: -1.49170 ]
	SubspaceRotationAdjust: set factor to 0.172
ElecMinimize: Iter:  47  G: -323.119688983898868  |grad|_K:  9.334e-07  alpha:  2.131e-01  linmin:  1.978e-05  t[s]:   8685.29
	FillingsUpdate:  mu: -0.070145146  nElectrons: 208.000000  magneticMoment: [ Abs: 1.78583  Tot: -1.49463 ]
	SubspaceRotationAdjust: set factor to 0.218
ElecMinimize: Iter:  48  G: -323.119729695142269  |grad|_K:  7.657e-07  alpha:  2.415e-01  linmin: -2.097e-06  t[s]:   8780.60
	FillingsUpdate:  mu: -0.068190616  nElectrons: 208.000000  magneticMoment: [ Abs: 1.79072  Tot: -1.49925 ]
	SubspaceRotationAdjust: set factor to 0.205
ElecMinimize: Iter:  49  G: -323.119755309323978  |grad|_K:  5.585e-07  alpha:  2.250e-01  linmin: -2.031e-05  t[s]:   8875.83
	FillingsUpdate:  mu: -0.067503543  nElectrons: 208.000000  magneticMoment: [ Abs: 1.79161  Tot: -1.50069 ]
	SubspaceRotationAdjust: set factor to 0.179
ElecMinimize: Iter:  50  G: -323.119772554910753  |grad|_K:  5.079e-07  alpha:  2.818e-01  linmin: -7.041e-06  t[s]:   8970.85
	FillingsUpdate:  mu: -0.068340252  nElectrons: 208.000000  magneticMoment: [ Abs: 1.78731  Tot: -1.49846 ]
	SubspaceRotationAdjust: set factor to 0.222
ElecMinimize: Iter:  51  G: -323.119785908847803  |grad|_K:  4.033e-07  alpha:  2.657e-01  linmin:  4.798e-06  t[s]:   9065.85
	FillingsUpdate:  mu: -0.069222519  nElectrons: 208.000000  magneticMoment: [ Abs: 1.78360  Tot: -1.49635 ]
	SubspaceRotationAdjust: set factor to 0.215
ElecMinimize: Iter:  52  G: -323.119794643641512  |grad|_K:  3.596e-07  alpha:  2.773e-01  linmin:  8.373e-06  t[s]:   9160.90
	FillingsUpdate:  mu: -0.068902571  nElectrons: 208.000000  magneticMoment: [ Abs: 1.78376  Tot: -1.49677 ]
	SubspaceRotationAdjust: set factor to 0.323
ElecMinimize: Iter:  53  G: -323.119801025315610  |grad|_K:  2.699e-07  alpha:  2.550e-01  linmin: -1.010e-06  t[s]:   9256.20
	FillingsUpdate:  mu: -0.068224713  nElectrons: 208.000000  magneticMoment: [ Abs: 1.78539  Tot: -1.49812 ]
	SubspaceRotationAdjust: set factor to 0.278
ElecMinimize: Iter:  54  G: -323.119804959022190  |grad|_K:  2.635e-07  alpha:  2.776e-01  linmin: -6.804e-06  t[s]:   9351.24
	FillingsUpdate:  mu: -0.068293425  nElectrons: 208.000000  magneticMoment: [ Abs: 1.78427  Tot: -1.49777 ]
	SubspaceRotationAdjust: set factor to 0.427
ElecMinimize: Iter:  55  G: -323.119809051870050  |grad|_K:  1.767e-07  alpha:  3.023e-01  linmin:  2.222e-06  t[s]:   9446.60
	FillingsUpdate:  mu: -0.068708324  nElectrons: 208.000000  magneticMoment: [ Abs: 1.78225  Tot: -1.49665 ]
	SubspaceRotationAdjust: set factor to 0.357
ElecMinimize: Iter:  56  G: -323.119810616745383  |grad|_K:  1.684e-07  alpha:  2.581e-01  linmin:  3.870e-06  t[s]:   9541.99
	FillingsUpdate:  mu: -0.068556082  nElectrons: 208.000000  magneticMoment: [ Abs: 1.78152  Tot: -1.49667 ]
	SubspaceRotationAdjust: set factor to 0.43
ElecMinimize: Iter:  57  G: -323.119812569093881  |grad|_K:  1.178e-07  alpha:  3.551e-01  linmin:  1.158e-06  t[s]:   9637.27
	FillingsUpdate:  mu: -0.068370707  nElectrons: 208.000000  magneticMoment: [ Abs: 1.78137  Tot: -1.49701 ]
	SubspaceRotationAdjust: set factor to 0.423
ElecMinimize: Iter:  58  G: -323.119813614658995  |grad|_K:  1.149e-07  alpha:  3.879e-01  linmin: -3.858e-06  t[s]:   9732.31
	FillingsUpdate:  mu: -0.068595773  nElectrons: 208.000000  magneticMoment: [ Abs: 1.78020  Tot: -1.49652 ]
	SubspaceRotationAdjust: set factor to 0.333
ElecMinimize: Iter:  59  G: -323.119814146373926  |grad|_K:  8.471e-08  alpha:  2.070e-01  linmin: -3.594e-06  t[s]:   9827.42
	FillingsUpdate:  mu: -0.068548833  nElectrons: 208.000000  magneticMoment: [ Abs: 1.77994  Tot: -1.49680 ]
	SubspaceRotationAdjust: set factor to 0.404
ElecMinimize: Iter:  60  G: -323.119814764372450  |grad|_K:  6.474e-08  alpha:  4.425e-01  linmin: -3.640e-06  t[s]:   9922.43
	FillingsUpdate:  mu: -0.068430898  nElectrons: 208.000000  magneticMoment: [ Abs: 1.78005  Tot: -1.49710 ]
	SubspaceRotationAdjust: set factor to 0.376
ElecMinimize: Iter:  61  G: -323.119815053726654  |grad|_K:  6.174e-08  alpha:  3.549e-01  linmin: -1.598e-06  t[s]:  10017.82
	FillingsUpdate:  mu: -0.068555551  nElectrons: 208.000000  magneticMoment: [ Abs: 1.77942  Tot: -1.49678 ]
	SubspaceRotationAdjust: set factor to 0.293
ElecMinimize: Iter:  62  G: -323.119815229607070  |grad|_K:  4.276e-08  alpha:  2.373e-01  linmin: -1.215e-06  t[s]:  10113.03
	FillingsUpdate:  mu: -0.068547841  nElectrons: 208.000000  magneticMoment: [ Abs: 1.77932  Tot: -1.49676 ]
	SubspaceRotationAdjust: set factor to 0.389
ElecMinimize: Iter:  63  G: -323.119815371806510  |grad|_K:  2.843e-08  alpha:  4.001e-01  linmin: -3.366e-06  t[s]:  10208.44
	FillingsUpdate:  mu: -0.068492548  nElectrons: 208.000000  magneticMoment: [ Abs: 1.77956  Tot: -1.49692 ]
	SubspaceRotationAdjust: set factor to 0.355
ElecMinimize: Iter:  64  G: -323.119815439418687  |grad|_K:  2.771e-08  alpha:  4.297e-01  linmin: -1.323e-06  t[s]:  10303.90
	FillingsUpdate:  mu: -0.068544402  nElectrons: 208.000000  magneticMoment: [ Abs: 1.77947  Tot: -1.49683 ]
	SubspaceRotationAdjust: set factor to 0.292
ElecMinimize: Iter:  65  G: -323.119815479512965  |grad|_K:  2.005e-08  alpha:  2.682e-01  linmin:  1.818e-06  t[s]:  10398.93
ElecMinimize: Converged (|Delta G|<1.000000e-07 for 2 iters).
Setting wave functions to eigenvectors of Hamiltonian
Converging empty states (this may take a while): |deigs|: 7.697e-03
Vacuum energy after initial minimize, F = -323.119815479512965

Shifting auxilliary hamiltonian by -0.058656 to set nElectrons=208.000000

-------- Electronic minimization -----------
	Linear fluid (dielectric constant: 78.4, screening length: 8.12261 Bohr) occupying 0.740968 of unit cell:	Completed after 20 iterations at t[s]:  10882.01
	FillingsUpdate:  mu: -0.127200000  nElectrons: 208.000000  magneticMoment: [ Abs: 1.78133  Tot: -1.49780 ]
ElecMinimize: Iter:   0  G: -323.115889224320995  |grad|_K:  5.428e-06  alpha:  1.000e+00
	Linear fluid (dielectric constant: 78.4, screening length: 8.12261 Bohr) occupying 0.744468 of unit cell:	Completed after 20 iterations at t[s]:  10977.30
	Linear fluid (dielectric constant: 78.4, screening length: 8.12261 Bohr) occupying 0.741127 of unit cell:	Completed after 20 iterations at t[s]:  11020.44
	FillingsUpdate:  mu: -0.127200000  nElectrons: 207.957924  magneticMoment: [ Abs: 1.74521  Tot: -1.45612 ]
	SubspaceRotationAdjust: set factor to 0.183
ElecMinimize: Iter:   1  G: -323.116531937451612  |grad|_K:  3.827e-06  alpha:  7.297e-02  linmin: -2.567e-02  t[s]:  11062.13
	Linear fluid (dielectric constant: 78.4, screening length: 8.12261 Bohr) occupying 0.741380 of unit cell:	Completed after 12 iterations at t[s]:  11105.00
ElecMinimize: 	Predicted alpha/alphaT>3.000000, increasing alphaT to 2.189075e-01.
	Linear fluid (dielectric constant: 78.4, screening length: 8.12261 Bohr) occupying 0.741900 of unit cell:	Completed after 13 iterations at t[s]:  11143.71
	Linear fluid (dielectric constant: 78.4, screening length: 8.12261 Bohr) occupying 0.742215 of unit cell:	Completed after 12 iterations at t[s]:  11181.69
	FillingsUpdate:  mu: -0.127200000  nElectrons: 207.802675  magneticMoment: [ Abs: 1.61348  Tot: -1.29797 ]
	SubspaceRotationAdjust: set factor to 0.105
ElecMinimize: Iter:   2  G: -323.117711768561037  |grad|_K:  9.310e-06  alpha:  3.034e-01  linmin:  3.783e-03  t[s]:  11223.79
	Linear fluid (dielectric constant: 78.4, screening length: 8.12261 Bohr) occupying 0.748415 of unit cell:	Completed after 21 iterations at t[s]:  11271.97
	Linear fluid (dielectric constant: 78.4, screening length: 8.12261 Bohr) occupying 0.742446 of unit cell:	Completed after 19 iterations at t[s]:  11314.51
	FillingsUpdate:  mu: -0.127200000  nElectrons: 207.775817  magneticMoment: [ Abs: 1.59036  Tot: -1.27019 ]
	SubspaceRotationAdjust: set factor to 0.0642
ElecMinimize: Iter:   3  G: -323.117826329482057  |grad|_K:  8.346e-06  alpha:  9.479e-03  linmin: -1.536e-03  t[s]:  11356.50
	Linear fluid (dielectric constant: 78.4, screening length: 8.12261 Bohr) occupying 0.742648 of unit cell:	Completed after 7 iterations at t[s]:  11396.44
ElecMinimize: 	Predicted alpha/alphaT>3.000000, increasing alphaT to 2.843751e-02.
	Linear fluid (dielectric constant: 78.4, screening length: 8.12261 Bohr) occupying 0.743063 of unit cell:	Completed after 10 iterations at t[s]:  11433.19
ElecMinimize: 	Predicted alpha/alphaT>3.000000, increasing alphaT to 8.531253e-02.
	Linear fluid (dielectric constant: 78.4, screening length: 8.12261 Bohr) occupying 0.744457 of unit cell:	Completed after 15 iterations at t[s]:  11473.02
	Linear fluid (dielectric constant: 78.4, screening length: 8.12261 Bohr) occupying 0.743884 of unit cell:	Completed after 13 iterations at t[s]:  11511.71
	FillingsUpdate:  mu: -0.127200000  nElectrons: 207.627756  magneticMoment: [ Abs: 1.46112  Tot: -1.11519 ]
	SubspaceRotationAdjust: set factor to 0.0402
ElecMinimize: Iter:   4  G: -323.118996292370127  |grad|_K:  1.062e-05  alpha:  6.317e-02  linmin:  2.881e-04  t[s]:  11554.36
	Linear fluid (dielectric constant: 78.4, screening length: 8.12261 Bohr) occupying 0.746498 of unit cell:	Completed after 17 iterations at t[s]:  11600.41
	Linear fluid (dielectric constant: 78.4, screening length: 8.12261 Bohr) occupying 0.746297 of unit cell:	Completed after 7 iterations at t[s]:  11635.32
	FillingsUpdate:  mu: -0.127200000  nElectrons: 207.354020  magneticMoment: [ Abs: 1.22647  Tot: -0.82838 ]
	SubspaceRotationAdjust: set factor to 0.0268
	SubspaceRotationAdjust: resetting CG because factor has changed by 0.0917831
	Linear fluid (dielectric constant: 78.4, screening length: 8.12261 Bohr) occupying 0.746297 of unit cell:	Completed after 0 iterations at t[s]:  11696.37
ElecMinimize: 	State modified externally: resetting search direction.
ElecMinimize: Iter:   5  G: -323.120098168339439  |grad|_K:  1.311e-05  alpha:  5.736e-02
	Linear fluid (dielectric constant: 78.4, screening length: 8.12261 Bohr) occupying 0.746333 of unit cell:	Completed after 13 iterations at t[s]:  11782.20
ElecMinimize: 	Predicted alpha/alphaT>3.000000, increasing alphaT to 1.720832e-01.
	Linear fluid (dielectric constant: 78.4, screening length: 8.12261 Bohr) occupying 0.746409 of unit cell:	Completed after 15 iterations at t[s]:  11822.53
	Linear fluid (dielectric constant: 78.4, screening length: 8.12261 Bohr) occupying 0.746540 of unit cell:	Completed after 17 iterations at t[s]:  11863.77
	FillingsUpdate:  mu: -0.127200000  nElectrons: 207.512061  magneticMoment: [ Abs: 1.36752  Tot: -0.97951 ]
	SubspaceRotationAdjust: set factor to 0.0405
ElecMinimize: Iter:   6  G: -323.132702312695130  |grad|_K:  6.016e-06  alpha:  3.618e-01  linmin: -1.795e-02  t[s]:  11905.85
	Linear fluid (dielectric constant: 78.4, screening length: 8.12261 Bohr) occupying 0.746901 of unit cell:	Completed after 15 iterations at t[s]:  11950.31
	Linear fluid (dielectric constant: 78.4, screening length: 8.12261 Bohr) occupying 0.747186 of unit cell:	Completed after 13 iterations at t[s]:  11989.00
	FillingsUpdate:  mu: -0.127200000  nElectrons: 207.552035  magneticMoment: [ Abs: 1.41126  Tot: -1.01139 ]
	SubspaceRotationAdjust: set factor to 0.0407
ElecMinimize: Iter:   7  G: -323.138075408105522  |grad|_K:  5.582e-06  alpha:  6.946e-01  linmin: -2.637e-03  t[s]:  12030.73
	Linear fluid (dielectric constant: 78.4, screening length: 8.12261 Bohr) occupying 0.747881 of unit cell:	Completed after 15 iterations at t[s]:  12075.29
	Linear fluid (dielectric constant: 78.4, screening length: 8.12261 Bohr) occupying 0.748026 of unit cell:	Completed after 13 iterations at t[s]:  12114.03
	FillingsUpdate:  mu: -0.127200000  nElectrons: 207.548411  magneticMoment: [ Abs: 1.42379  Tot: -0.99361 ]
	SubspaceRotationAdjust: set factor to 0.0501
ElecMinimize: Iter:   8  G: -323.144429262448512  |grad|_K:  4.448e-06  alpha:  9.750e-01  linmin: -9.866e-03  t[s]:  12155.69
	Linear fluid (dielectric constant: 78.4, screening length: 8.12261 Bohr) occupying 0.748211 of unit cell:	Completed after 12 iterations at t[s]:  12198.55
	Linear fluid (dielectric constant: 78.4, screening length: 8.12261 Bohr) occupying 0.748176 of unit cell:	Completed after 8 iterations at t[s]:  12234.29
	FillingsUpdate:  mu: -0.127200000  nElectrons: 207.541796  magneticMoment: [ Abs: 1.41564  Tot: -0.98187 ]
	SubspaceRotationAdjust: set factor to 0.0638
ElecMinimize: Iter:   9  G: -323.147106078914703  |grad|_K:  3.962e-06  alpha:  6.439e-01  linmin: -8.657e-04  t[s]:  12275.91
	Linear fluid (dielectric constant: 78.4, screening length: 8.12261 Bohr) occupying 0.748186 of unit cell:	Completed after 11 iterations at t[s]:  12317.89
	Linear fluid (dielectric constant: 78.4, screening length: 8.12261 Bohr) occupying 0.748185 of unit cell:	Completed after 3 iterations at t[s]:  12350.49
	FillingsUpdate:  mu: -0.127200000  nElectrons: 207.526997  magneticMoment: [ Abs: 1.38772  Tot: -0.96521 ]
	SubspaceRotationAdjust: set factor to 0.0793
ElecMinimize: Iter:  10  G: -323.149190284045005  |grad|_K:  2.261e-06  alpha:  6.639e-01  linmin: -5.488e-03  t[s]:  12392.16
	Linear fluid (dielectric constant: 78.4, screening length: 8.12261 Bohr) occupying 0.748166 of unit cell:	Completed after 8 iterations at t[s]:  12432.42
	Linear fluid (dielectric constant: 78.4, screening length: 8.12261 Bohr) occupying 0.748149 of unit cell:	Completed after 6 iterations at t[s]:  12466.72
	FillingsUpdate:  mu: -0.127200000  nElectrons: 207.527521  magneticMoment: [ Abs: 1.37276  Tot: -0.96647 ]
	SubspaceRotationAdjust: set factor to 0.103
ElecMinimize: Iter:  11  G: -323.150385550131944  |grad|_K:  2.172e-06  alpha:  1.050e+00  linmin: -1.522e-03  t[s]:  12508.72
	Linear fluid (dielectric constant: 78.4, screening length: 8.12261 Bohr) occupying 0.748106 of unit cell:	Completed after 11 iterations at t[s]:  12550.83
	Linear fluid (dielectric constant: 78.4, screening length: 8.12261 Bohr) occupying 0.748121 of unit cell:	Completed after 6 iterations at t[s]:  12585.14
	FillingsUpdate:  mu: -0.127200000  nElectrons: 207.532515  magneticMoment: [ Abs: 1.36389  Tot: -0.97400 ]
	SubspaceRotationAdjust: set factor to 0.122
ElecMinimize: Iter:  12  G: -323.151132729039659  |grad|_K:  2.135e-06  alpha:  7.588e-01  linmin: -1.879e-04  t[s]:  12626.90
	Linear fluid (dielectric constant: 78.4, screening length: 8.12261 Bohr) occupying 0.748111 of unit cell:	Completed after 8 iterations at t[s]:  12667.05
	Linear fluid (dielectric constant: 78.4, screening length: 8.12261 Bohr) occupying 0.748107 of unit cell:	Completed after 3 iterations at t[s]:  12699.44
	FillingsUpdate:  mu: -0.127200000  nElectrons: 207.519364  magneticMoment: [ Abs: 1.33099  Tot: -0.96899 ]
	SubspaceRotationAdjust: set factor to 0.139
ElecMinimize: Iter:  13  G: -323.151945010722557  |grad|_K:  1.700e-06  alpha:  8.847e-01  linmin: -7.626e-04  t[s]:  12741.19
	Linear fluid (dielectric constant: 78.4, screening length: 8.12261 Bohr) occupying 0.748156 of unit cell:	Completed after 8 iterations at t[s]:  12781.40
	Linear fluid (dielectric constant: 78.4, screening length: 8.12261 Bohr) occupying 0.748150 of unit cell:	Completed after 3 iterations at t[s]:  12813.97
	FillingsUpdate:  mu: -0.127200000  nElectrons: 207.520541  magneticMoment: [ Abs: 1.31876  Tot: -0.97621 ]
	SubspaceRotationAdjust: set factor to 0.158
ElecMinimize: Iter:  14  G: -323.152398099473089  |grad|_K:  1.501e-06  alpha:  7.473e-01  linmin: -6.714e-05  t[s]:  12855.71
	Linear fluid (dielectric constant: 78.4, screening length: 8.12261 Bohr) occupying 0.748220 of unit cell:	Completed after 4 iterations at t[s]:  12893.67
	Linear fluid (dielectric constant: 78.4, screening length: 8.12261 Bohr) occupying 0.748220 of unit cell:	Completed after 0 iterations at t[s]:  12923.81
	FillingsUpdate:  mu: -0.127200000  nElectrons: 207.516360  magneticMoment: [ Abs: 1.29916  Tot: -0.97905 ]
	SubspaceRotationAdjust: set factor to 0.187
ElecMinimize: Iter:  15  G: -323.152727002531037  |grad|_K:  1.026e-06  alpha:  7.430e-01  linmin: -9.704e-05  t[s]:  12965.78
	Linear fluid (dielectric constant: 78.4, screening length: 8.12261 Bohr) occupying 0.748280 of unit cell:	Completed after 4 iterations at t[s]:  13003.60
	Linear fluid (dielectric constant: 78.4, screening length: 8.12261 Bohr) occupying 0.748283 of unit cell:	Completed after 0 iterations at t[s]:  13033.46
	FillingsUpdate:  mu: -0.127200000  nElectrons: 207.512938  magneticMoment: [ Abs: 1.28304  Tot: -0.98114 ]
	SubspaceRotationAdjust: set factor to 0.223
	SubspaceRotationAdjust: resetting CG because factor has changed by 8.33774
	Linear fluid (dielectric constant: 78.4, screening length: 8.12261 Bohr) occupying 0.748283 of unit cell:	Completed after 0 iterations at t[s]:  13093.79
ElecMinimize: 	State modified externally: resetting search direction.
ElecMinimize: Iter:  16  G: -323.152889201550806  |grad|_K:  7.274e-07  alpha:  7.830e-01
	Linear fluid (dielectric constant: 78.4, screening length: 8.12261 Bohr) occupying 0.748292 of unit cell:	Completed after 3 iterations at t[s]:  13172.41
	Linear fluid (dielectric constant: 78.4, screening length: 8.12261 Bohr) occupying 0.748289 of unit cell:	Completed after 2 iterations at t[s]:  13204.22
	FillingsUpdate:  mu: -0.127200000  nElectrons: 207.510320  magneticMoment: [ Abs: 1.27651  Tot: -0.98059 ]
	SubspaceRotationAdjust: set factor to 0.284
ElecMinimize: Iter:  17  G: -323.152941538105893  |grad|_K:  4.421e-07  alpha:  5.086e-01  linmin:  4.769e-05  t[s]:  13246.28
	Linear fluid (dielectric constant: 78.4, screening length: 8.12261 Bohr) occupying 0.748297 of unit cell:	Completed after 2 iterations at t[s]:  13282.67
	Linear fluid (dielectric constant: 78.4, screening length: 8.12261 Bohr) occupying 0.748307 of unit cell:	Completed after 3 iterations at t[s]:  13315.03
	FillingsUpdate:  mu: -0.127200000  nElectrons: 207.505963  magneticMoment: [ Abs: 1.26051  Tot: -0.98114 ]
	SubspaceRotationAdjust: set factor to 0.374
ElecMinimize: Iter:  18  G: -323.152983850342196  |grad|_K:  4.356e-07  alpha:  1.113e+00  linmin: -4.600e-05  t[s]:  13356.75
	Linear fluid (dielectric constant: 78.4, screening length: 8.12261 Bohr) occupying 0.748329 of unit cell:	Completed after 4 iterations at t[s]:  13394.35
	Linear fluid (dielectric constant: 78.4, screening length: 8.12261 Bohr) occupying 0.748322 of unit cell:	Completed after 2 iterations at t[s]:  13426.07
	FillingsUpdate:  mu: -0.127200000  nElectrons: 207.504456  magneticMoment: [ Abs: 1.24464  Tot: -0.98373 ]
	SubspaceRotationAdjust: set factor to 0.444
ElecMinimize: Iter:  19  G: -323.153012102604350  |grad|_K:  3.954e-07  alpha:  7.642e-01  linmin:  1.062e-06  t[s]:  13467.76
	Linear fluid (dielectric constant: 78.4, screening length: 8.12261 Bohr) occupying 0.748335 of unit cell:	Completed after 4 iterations at t[s]:  13505.47
	Linear fluid (dielectric constant: 78.4, screening length: 8.12261 Bohr) occupying 0.748334 of unit cell:	Completed after 0 iterations at t[s]:  13535.35
	FillingsUpdate:  mu: -0.127200000  nElectrons: 207.502437  magneticMoment: [ Abs: 1.22519  Tot: -0.98490 ]
	SubspaceRotationAdjust: set factor to 0.444
ElecMinimize: Iter:  20  G: -323.153033565323710  |grad|_K:  2.813e-07  alpha:  7.073e-01  linmin:  1.046e-06  t[s]:  13577.04
	Linear fluid (dielectric constant: 78.4, screening length: 8.12261 Bohr) occupying 0.748338 of unit cell:	Completed after 6 iterations at t[s]:  13615.94
	Linear fluid (dielectric constant: 78.4, screening length: 8.12261 Bohr) occupying 0.748336 of unit cell:	Completed after 3 iterations at t[s]:  13649.63
	FillingsUpdate:  mu: -0.127200000  nElectrons: 207.504481  magneticMoment: [ Abs: 1.22079  Tot: -0.98736 ]
	SubspaceRotationAdjust: set factor to 0.33
ElecMinimize: Iter:  21  G: -323.153038806935172  |grad|_K:  2.020e-07  alpha:  3.548e-01  linmin:  1.318e-04  t[s]:  13691.56
	Linear fluid (dielectric constant: 78.4, screening length: 8.12261 Bohr) occupying 0.748335 of unit cell:	Completed after 3 iterations at t[s]:  13728.54
	Linear fluid (dielectric constant: 78.4, screening length: 8.12261 Bohr) occupying 0.748335 of unit cell:	Completed after 0 iterations at t[s]:  13758.33
	FillingsUpdate:  mu: -0.127200000  nElectrons: 207.503883  magneticMoment: [ Abs: 1.21554  Tot: -0.98715 ]
	SubspaceRotationAdjust: set factor to 0.266
ElecMinimize: Iter:  22  G: -323.153041446520774  |grad|_K:  1.098e-07  alpha:  3.379e-01  linmin:  6.993e-05  t[s]:  13800.21
	Linear fluid (dielectric constant: 78.4, screening length: 8.12261 Bohr) occupying 0.748333 of unit cell:	Completed after 1 iterations at t[s]:  13835.85
	Linear fluid (dielectric constant: 78.4, screening length: 8.12261 Bohr) occupying 0.748332 of unit cell:	Completed after 0 iterations at t[s]:  13865.75
	FillingsUpdate:  mu: -0.127200000  nElectrons: 207.504372  magneticMoment: [ Abs: 1.21277  Tot: -0.98773 ]
	SubspaceRotationAdjust: set factor to 0.375
ElecMinimize: Iter:  23  G: -323.153042684875970  |grad|_K:  6.334e-08  alpha:  5.107e-01  linmin: -1.018e-03  t[s]:  13907.43
	Linear fluid (dielectric constant: 78.4, screening length: 8.12261 Bohr) occupying 0.748329 of unit cell:	Completed after 1 iterations at t[s]:  13943.13
	Linear fluid (dielectric constant: 78.4, screening length: 8.12261 Bohr) occupying 0.748328 of unit cell:	Completed after 0 iterations at t[s]:  13972.90
	FillingsUpdate:  mu: -0.127200000  nElectrons: 207.504989  magneticMoment: [ Abs: 1.21095  Tot: -0.98833 ]
	SubspaceRotationAdjust: set factor to 0.433
ElecMinimize: Iter:  24  G: -323.153043273575292  |grad|_K:  4.963e-08  alpha:  6.766e-01  linmin: -8.176e-04  t[s]:  14014.55
	Linear fluid (dielectric constant: 78.4, screening length: 8.12261 Bohr) occupying 0.748324 of unit cell:	Completed after 2 iterations at t[s]:  14050.89
	Linear fluid (dielectric constant: 78.4, screening length: 8.12261 Bohr) occupying 0.748325 of unit cell:	Completed after 0 iterations at t[s]:  14080.82
	FillingsUpdate:  mu: -0.127200000  nElectrons: 207.505094  magneticMoment: [ Abs: 1.20880  Tot: -0.98840 ]
	SubspaceRotationAdjust: set factor to 0.566
ElecMinimize: Iter:  25  G: -323.153043616726848  |grad|_K:  3.937e-08  alpha:  6.520e-01  linmin: -1.244e-04  t[s]:  14122.47
	Linear fluid (dielectric constant: 78.4, screening length: 8.12261 Bohr) occupying 0.748322 of unit cell:	Completed after 2 iterations at t[s]:  14158.78
	Linear fluid (dielectric constant: 78.4, screening length: 8.12261 Bohr) occupying 0.748323 of unit cell:	Completed after 0 iterations at t[s]:  14188.67
	FillingsUpdate:  mu: -0.127200000  nElectrons: 207.504945  magneticMoment: [ Abs: 1.20722  Tot: -0.98824 ]
	SubspaceRotationAdjust: set factor to 0.507
ElecMinimize: Iter:  26  G: -323.153043778688016  |grad|_K:  4.046e-08  alpha:  5.093e-01  linmin:  2.665e-04  t[s]:  14230.33
	Linear fluid (dielectric constant: 78.4, screening length: 8.12261 Bohr) occupying 0.748321 of unit cell:	Completed after 2 iterations at t[s]:  14266.72
	Linear fluid (dielectric constant: 78.4, screening length: 8.12261 Bohr) occupying 0.748322 of unit cell:	Completed after 1 iterations at t[s]:  14297.85
	FillingsUpdate:  mu: -0.127200000  nElectrons: 207.505163  magneticMoment: [ Abs: 1.20682  Tot: -0.98842 ]
	SubspaceRotationAdjust: set factor to 0.341
ElecMinimize: Iter:  27  G: -323.153043835650237  |grad|_K:  2.933e-08  alpha:  1.936e-01  linmin:  4.817e-04  t[s]:  14339.54
	Linear fluid (dielectric constant: 78.4, screening length: 8.12261 Bohr) occupying 0.748322 of unit cell:	Completed after 0 iterations at t[s]:  14373.98
	Linear fluid (dielectric constant: 78.4, screening length: 8.12261 Bohr) occupying 0.748322 of unit cell:	Completed after 0 iterations at t[s]:  14403.93
	FillingsUpdate:  mu: -0.127200000  nElectrons: 207.505120  magneticMoment: [ Abs: 1.20599  Tot: -0.98834 ]
	SubspaceRotationAdjust: set factor to 0.495
ElecMinimize: Iter:  28  G: -323.153043893487506  |grad|_K:  2.460e-08  alpha:  4.342e-01  linmin: -1.956e-06  t[s]:  14445.92
ElecMinimize: Converged (|Delta G|<1.000000e-07 for 2 iters).
Setting wave functions to eigenvectors of Hamiltonian
Converging empty states (this may take a while): |deigs|: 9.827e-04
Single-point solvation energy estimate, DeltaG = -0.033228413974541

Computing DFT-D3 correction:
# coordination-number C 3.300 3.324 3.336 3.333 3.313 3.288 3.322 3.555 3.330 3.313 3.301 3.323 3.302 3.301 3.324 3.571 3.265 3.301 3.321 3.336 3.330 3.302 3.302 3.330 3.336 3.321 3.301 3.265 3.555 3.324 3.301 3.302 3.323 3.300 3.313 3.330 3.572 3.324 3.288 3.313 3.333 3.336 3.324 3.301
# coordination-number N 3.173 3.174 3.172 3.174
# coordination-number Ti 5.299
# diagonal-C6 C 24.28 24.04 23.91 23.94 24.15 24.39 24.06 20.86 23.98 24.15 24.28 24.05 24.26 24.27 24.04 20.64 24.59 24.27 24.07 23.91 23.98 24.26 24.26 23.98 23.91 24.07 24.27 24.59 20.85 24.04 24.27 24.26 24.05 24.28 24.15 23.98 20.63 24.04 24.39 24.15 23.94 23.91 24.04 24.28
# diagonal-C6 N 15.60 15.60 15.60 15.60
# diagonal-C6 Ti 321.59
EvdW_6 =   -0.036017
EvdW_8 =   -0.029680

# Ionic positions in cartesian coordinates:
ion C   0.000071000000000   0.029053000000000  -0.006315000000000 1
ion C  21.038940999999998   3.979909999999999  -0.051864000000000 1
ion C  18.696676999999998   7.978919999999999  -0.182023000000000 1
ion C  -7.038351999999997  11.978806999999996  -0.185267000000000 1
ion C  -9.366097999999997  15.988189999999998  -0.072411000000000 1
ion C   4.684885999999999   0.142171000000000   0.038152000000000 1
ion C   2.289600000000001   4.159014999999999   0.144390000000000 1
ion C  -0.115523000000000   7.958648000000000   0.054243000000000 1
ion C  -2.423620000000001  11.962605999999999  -0.095077000000000 1
ion C  -4.717501999999998  15.991342999999999  -0.069253000000000 1
ion C   9.370680000000000   0.034201000000000  -0.009041000000000 1
ion C   7.075154000000000   4.159023999999999   0.127779000000000 1
ion C  -0.022701000000000  15.884873999999998   0.014058000000000 1
ion C   2.345669999999998  19.844860000000001  -0.008738000000000 1
ion C  11.754823999999999   3.972219000000000  -0.061467000000000 1
ion C   9.474065999999999   7.965336999999999   0.031145000000000 1
ion C   4.672960000000000  15.742636999999997   0.131413000000000 1
ion C   6.994077999999998  19.848969000000000  -0.009560000000000 1
ion C  16.396806999999999   3.952650000000000  -0.117268000000000 1
ion C  14.091600999999997   7.975181999999999  -0.185786000000000 1
ion C  11.776667999999997  11.974072999999997  -0.106194000000000 1
ion C   9.368933000000000  15.894161999999998   0.001774000000000 1
ion C  -0.012158000000000   2.713493999999999   0.016783000000000 1
ion C  -2.419282000000000   6.631670000000000  -0.093563000000000 1
ion C  -4.734741999999998  10.629464999999996  -0.182369000000000 1
ion C  -7.040802999999999  14.652294999999999  -0.117398000000000 1
ion C  -9.367925999999999  18.674710999999995  -0.007397000000000 1
ion C   4.682903000000000   2.862985999999999   0.136171000000000 1
ion C  -0.117862000000001  10.639429000000000   0.052470000000000 1
ion C  -2.398830999999999  14.632348000000000  -0.053465000000000 1
ion C  -4.719822000000000  18.677703999999999  -0.007916000000000 1
ion C   9.378834999999999   2.718497000000000   0.004888000000000 1
ion C   2.281378999999999  14.443429999999998   0.139804000000000 1
ion C  -0.014533999999999  18.569230999999995  -0.007310000000000 1
ion C  14.073459000000000   2.613322999999999  -0.072152000000000 1
ion C  11.780644000000001   6.641762999999999  -0.104464000000000 1
ion C   9.472170999999998  10.647114999999999   0.029198000000000 1
ion C   7.067373000000002  14.450573999999996   0.122891000000000 1
ion C   4.670753999999999  18.463232000000001   0.035124000000000 1
ion C  18.722289000000000   2.617312999999999  -0.069253000000000 1
ion C  16.395071000000002   6.626078999999999  -0.184877000000000 1
ion C  14.089552999999999  10.644006999999998  -0.186175000000000 1
ion C  11.746678999999999  14.643653999999998  -0.063500000000000 1
ion C   9.356669000000000  18.578344000000001  -0.010511000000000 1
ion N   2.171487999999998  11.843885000000000   0.285621000000000 1
ion N   7.181676000000000  11.851438999999997   0.255429000000000 1
ion N   2.175835000000000   6.758747999999999   0.289990000000000 1
ion N   7.185303000000001   6.758489999999999   0.260187000000000 1
ion Ti   4.700268000000000   9.307650999999998   1.879314000000000 1

# Forces in Cartesian coordinates:
force C   0.000084834331279   0.000117987800781  -0.000017046971331 1
force C   0.000030951146527   0.000026038871630  -0.000016134498934 1
force C   0.000092678144231   0.000021516076024  -0.000014386369156 1
force C   0.000013454747456   0.000064059281814  -0.000022733161303 1
force C   0.000088016348935   0.000087449933545  -0.000020558755895 1
force C   0.000008016309067   0.000034382800550   0.000041142042732 1
force C   0.000025034378654  -0.000077014057193   0.000040954622673 1
force C   0.000022870548884   0.000027967451439   0.000008764609803 1
force C  -0.000065465084066  -0.000005538761991  -0.000009962962574 1
force C  -0.000059270939668   0.000077172458579  -0.000010052383296 1
force C  -0.000042136702987   0.000129327794373  -0.000013577820272 1
force C   0.000003760739813  -0.000061380606023   0.000035427617962 1
force C   0.000011785951755   0.000079275375682  -0.000027590940461 1
force C  -0.000030005720156   0.000081963437751  -0.000016638218286 1
force C  -0.000012482051888   0.000022681174913  -0.000044189681116 1
force C   0.000012242467294   0.000036988017454  -0.000006948578199 1
force C   0.000011825789091   0.000005326906012   0.000067951430399 1
force C   0.000053087107877   0.000089202023899  -0.000011546455729 1
force C   0.000018752585774   0.000055325805239   0.000021715249324 1
force C  -0.000048011323852   0.000036523684359  -0.000055089388179 1
force C   0.000086898715166  -0.000001194769985  -0.000052449404507 1
force C   0.000025142827072   0.000074006564016  -0.000030629276882 1
force C   0.000021131522021  -0.000048033692316  -0.000029257151505 1
force C  -0.000060227921637   0.000034001983151  -0.000008635619297 1
force C   0.000090102929121  -0.000005162633064  -0.000017312013601 1
force C   0.000020265254728  -0.000037710053229   0.000013753719851 1
force C  -0.000022116793767  -0.000068413846209  -0.000014071579339 1
force C   0.000016783652289   0.000019321211718   0.000072977795145 1
force C   0.000030313375953  -0.000011104458178   0.000010430414522 1
force C   0.000045194928945  -0.000007281830787  -0.000028083190809 1
force C   0.000058454291173  -0.000066812204604  -0.000011888905714 1
force C   0.000028637334536  -0.000060008755301  -0.000029342171245 1
force C   0.000030458413052   0.000095316498808   0.000037844517648 1
force C   0.000079186712162  -0.000105372435082  -0.000021556772070 1
force C   0.000089181154205  -0.000055832815897  -0.000018037777691 1
force C   0.000093123688047   0.000024022835727  -0.000052759113223 1
force C   0.000013862944373  -0.000008179902289  -0.000004967678085 1
force C   0.000012403916891   0.000075169363909   0.000034844375361 1
force C   0.000020764210299  -0.000012734463959   0.000047935594595 1
force C  -0.000050536740039  -0.000056380333157  -0.000010554308218 1
force C   0.000018589339069  -0.000041241565647  -0.000022065355743 1
force C  -0.000042722183331  -0.000019753867811  -0.000059728876973 1
force C  -0.000017302886737  -0.000004050534962  -0.000045127814146 1
force C  -0.000041589114564  -0.000107744718141  -0.000011648526063 1
force N   0.000023938173876  -0.000052272965075   0.000128683067902 1
force N   0.000005820269512  -0.000058943634966   0.000130066119864 1
force N   0.000023448838786   0.000071134014002   0.000131063237873 1
force N   0.000004809927890   0.000081380505163   0.000132014011888 1
force Ti   0.000028029723028   0.000012106509290  -0.000657007217336 1

# Energy components:
   A_diel =       -0.0447223768832950
   Eewald =     1529.7342873510840491
       EH =     1803.9866963746599140
     Eloc =    -3813.1338398787979713
      Enl =       47.2799133742715725
     EvdW =       -0.0656968766406729
      Exc =      -99.7000660637091585
 Exc_core =        3.1457486313934777
       KE =      179.2452394839610292
  MuShift =        0.0050572675202319
-------------------------------------
     Etot =     -349.5473827131406210
       TS =        0.0003124269349385
-------------------------------------
        F =     -349.5476951400755752
      muN =      -26.3946512465880687
-------------------------------------
        G =     -323.1530438934875065


Dumping 'jdft.fillings' ... done
Dumping 'jdft.wfns' ... done
Dumping 'jdft.fluidState' ... done
Dumping 'jdft.ionpos' ... done
Dumping 'jdft.lattice' ... done
Dumping 'jdft.eigenvals' ... done
Dumping 'jdft.eigStats' ... 
	eMin: -2.265945 at state 10 ( [ +0.000000 +0.333333 +0.000000 ] spin -1 )
	HOMO: -0.130299 at state 13 ( [ +0.333333 +0.333333 +0.000000 ] spin -1 )
	mu  : -0.127200
	LUMO: -0.125726 at state 10 ( [ +0.000000 +0.333333 +0.000000 ] spin -1 )
	eMax: +0.025246 at state 0 ( [ +0.000000 +0.000000 +0.000000 ] spin 1 )
	HOMO-LUMO gap: +0.004574
	Optical gap  : +0.005480 at state 11 ( [ +0.000000 -0.333333 +0.000000 ] spin -1 )
Dumping 'jdft.Ecomponents' ... done
IonicMinimize: Iter:   0  G: -323.153043893487506  |grad|_K:  7.388e-05  t[s]:  15182.43
IonicMinimize: Converged (|grad|_K<1.000000e-04).

#--- Lowdin population analysis ---
# oxidation-state C +0.037 +0.046 +0.036 +0.044 +0.034 +0.038 +0.164 +0.131 +0.025 +0.034 +0.037 +0.164 +0.022 +0.041 +0.046 +0.130 -0.004 +0.041 +0.032 +0.037 +0.025 +0.021 +0.022 +0.025 +0.036 +0.032 +0.041 -0.004 +0.131 +0.046 +0.041 +0.021 +0.164 +0.036 +0.034 +0.025 +0.130 +0.164 +0.038 +0.034 +0.044 +0.037 +0.046 +0.037
# magnetic-moments C -0.001 +0.000 -0.002 -0.001 -0.001 -0.004 -0.007 -0.001 -0.005 -0.001 -0.001 -0.006 -0.001 +0.001 +0.001 -0.001 +0.007 +0.001 +0.000 -0.001 -0.006 -0.003 -0.001 -0.005 -0.002 +0.000 +0.001 +0.007 -0.001 +0.000 +0.001 -0.003 -0.007 -0.001 -0.001 -0.006 -0.001 -0.006 -0.004 -0.001 -0.001 -0.001 +0.001 -0.001
# oxidation-state N -0.307 -0.307 -0.307 -0.307
# magnetic-moments N +0.023 +0.022 +0.022 +0.022
# oxidation-state Ti +1.539
# magnetic-moments Ti -0.994


Dumping 'jdft.n_up' ... done
Dumping 'jdft.n_dn' ... done
Dumping 'jdft.tau_up' ... done
Dumping 'jdft.tau_dn' ... done
Dumping 'jdft.eigenvals' ... done
Dumping 'jdft.eigStats' ... 
	eMin: -2.265945 at state 10 ( [ +0.000000 +0.333333 +0.000000 ] spin -1 )
	HOMO: -0.130299 at state 13 ( [ +0.333333 +0.333333 +0.000000 ] spin -1 )
	mu  : -0.127200
	LUMO: -0.125726 at state 10 ( [ +0.000000 +0.333333 +0.000000 ] spin -1 )
	eMax: +0.025246 at state 0 ( [ +0.000000 +0.000000 +0.000000 ] spin 1 )
	HOMO-LUMO gap: +0.004574
	Optical gap  : +0.005480 at state 11 ( [ +0.000000 -0.333333 +0.000000 ] spin -1 )
Dumping 'jdft.kPts' ... done
Dumping 'jdft.dosUp' ... done.
Dumping 'jdft.dosDn' ... done.
End date and time: Tue Mar 14 17:50:17 2023  (Duration: 0-4:14:06.81)
Done!

PROFILER:             augmentDensityGrid     0.875467 +/-     0.890680 s,  813 calls,    711.754465 s total
PROFILER:         augmentDensityGridGrad     0.567378 +/-     0.536770 s,  411 calls,    233.192181 s total
PROFILER:        augmentDensitySpherical     0.000667 +/-     0.000753 s,  813 calls,      0.542280 s total
PROFILER:    augmentDensitySphericalGrad     0.000801 +/-     0.002540 s,  582 calls,      0.466160 s total
PROFILER:                 augmentOverlap     1.771885 +/-     2.060371 s, 1515 calls,   2684.405898 s total
PROFILER:        ColumnBundle::randomize     0.005388 +/-     0.000000 s,    1 calls,      0.005388 s total
PROFILER:                     diagouterI    14.893656 +/-     3.311400 s,  274 calls,   4080.861732 s total
PROFILER:              EdensityAndVscloc     3.298662 +/-     4.879730 s,  272 calls,    897.236049 s total
PROFILER:                     EnlAndGrad     0.001711 +/-     0.002228 s,  783 calls,      1.339901 s total
PROFILER:            ExCorrCommunication     0.051143 +/-     0.055180 s, 1645 calls,     84.130395 s total
PROFILER:               ExCorrFunctional     0.023127 +/-     0.002553 s,  276 calls,      6.383140 s total
PROFILER:                    ExCorrTotal     0.575976 +/-     0.123742 s,  276 calls,    158.969318 s total
PROFILER:                   Idag_DiagV_I    22.199070 +/-    12.677373 s,  193 calls,   4284.420464 s total
PROFILER:                    initWeights     1.860083 +/-     0.000000 s,    1 calls,      1.860083 s total
PROFILER:                    inv(matrix)     0.001505 +/-     0.000064 s,  195 calls,      0.293440 s total
PROFILER:            matrix::diagonalize     0.008711 +/-     0.004546 s,  450 calls,      3.919796 s total
PROFILER:                    matrix::set     0.000002 +/-     0.000003 s, 22791 calls,      0.048030 s total
PROFILER:            orthoMatrix(matrix)     0.001111 +/-     0.000463 s,  252 calls,      0.279910 s total
PROFILER:     RadialFunctionR::transform     0.016455 +/-     0.141457 s,  106 calls,      1.744237 s total
PROFILER:                    reduceKmesh     0.000000 +/-     0.000000 s,    1 calls,      0.000000 s total
PROFILER:   VanDerWaalsD3::energyAndGrad     0.026661 +/-     0.000145 s,    3 calls,      0.079983 s total
PROFILER:               WavefunctionDrag    12.385946 +/-     0.000000 s,    1 calls,     12.385946 s total
PROFILER:                            Y*M     0.725535 +/-     0.777459 s, 3167 calls,   2297.768289 s total
PROFILER:                          Y1^Y2     0.718563 +/-     0.797302 s, 2182 calls,   1567.905370 s total

MEMUSAGE:                   ColumnBundle     1.256932 GB
MEMUSAGE:        complexScalarFieldTilde     0.074158 GB
MEMUSAGE:                    IndexArrays     0.023143 GB
MEMUSAGE:                         matrix     0.019775 GB
MEMUSAGE:                           misc     0.050514 GB
MEMUSAGE:                    ScalarField     0.358429 GB
MEMUSAGE:               ScalarFieldTilde     0.262436 GB
MEMUSAGE:                          Total     1.535124 GB
