
*************** JDFTx 1.7.0 (git hash 5f12716a) ***************

Start date and time: Tue Mar 14 13:32:58 2023
Executable /home/nisi6161/jdftx_alpine/build/jdftx with command-line: -i in
Running on hosts (process indices):  c3cpu-c11-u32-2.rc.int.colorado.edu (0-17)
Divided in process groups (process indices):  0 (0)  1 (1)  2 (2)  3 (3)  4 (4)  5 (5)  6 (6)  7 (7)  8 (8)  9 (9)  10 (10)  11 (11)  12 (12)  13 (13)  14 (14)  15 (15)  16 (16)  17 (17)
Resource initialization completed at t[s]:      0.01
Run totals: 18 processes, 32 threads, 0 GPUs


Input parsed successfully to the following command list (including defaults):

basis kpoint-dependent
converge-empty-states yes
coords-type Cartesian
core-overlap-check none
coulomb-interaction Periodic
davidson-band-ratio 1.1
density-of-states Etol 1.000000e-06 Esigma 1.000000e-03 \
		Complete \
	Total \
	OrthoOrbital C 1   s \
	OrthoOrbital C 1   p \
	OrthoOrbital C 1   px \
	OrthoOrbital C 1   py \
	OrthoOrbital C 1   pz \
	OrthoOrbital C 2   s \
	OrthoOrbital C 2   p \
	OrthoOrbital C 2   px \
	OrthoOrbital C 2   py \
	OrthoOrbital C 2   pz \
	OrthoOrbital C 3   s \
	OrthoOrbital C 3   p \
	OrthoOrbital C 3   px \
	OrthoOrbital C 3   py \
	OrthoOrbital C 3   pz \
	OrthoOrbital C 4   s \
	OrthoOrbital C 4   p \
	OrthoOrbital C 4   px \
	OrthoOrbital C 4   py \
	OrthoOrbital C 4   pz \
	OrthoOrbital C 5   s \
	OrthoOrbital C 5   p \
	OrthoOrbital C 5   px \
	OrthoOrbital C 5   py \
	OrthoOrbital C 5   pz \
	OrthoOrbital C 6   s \
	OrthoOrbital C 6   p \
	OrthoOrbital C 6   px \
	OrthoOrbital C 6   py \
	OrthoOrbital C 6   pz \
	OrthoOrbital C 7   s \
	OrthoOrbital C 7   p \
	OrthoOrbital C 7   px \
	OrthoOrbital C 7   py \
	OrthoOrbital C 7   pz \
	OrthoOrbital C 8   s \
	OrthoOrbital C 8   p \
	OrthoOrbital C 8   px \
	OrthoOrbital C 8   py \
	OrthoOrbital C 8   pz \
	OrthoOrbital C 9   s \
	OrthoOrbital C 9   p \
	OrthoOrbital C 9   px \
	OrthoOrbital C 9   py \
	OrthoOrbital C 9   pz \
	OrthoOrbital C 10   s \
	OrthoOrbital C 10   p \
	OrthoOrbital C 10   px \
	OrthoOrbital C 10   py \
	OrthoOrbital C 10   pz \
	OrthoOrbital C 11   s \
	OrthoOrbital C 11   p \
	OrthoOrbital C 11   px \
	OrthoOrbital C 11   py \
	OrthoOrbital C 11   pz \
	OrthoOrbital C 12   s \
	OrthoOrbital C 12   p \
	OrthoOrbital C 12   px \
	OrthoOrbital C 12   py \
	OrthoOrbital C 12   pz \
	OrthoOrbital C 13   s \
	OrthoOrbital C 13   p \
	OrthoOrbital C 13   px \
	OrthoOrbital C 13   py \
	OrthoOrbital C 13   pz \
	OrthoOrbital C 14   s \
	OrthoOrbital C 14   p \
	OrthoOrbital C 14   px \
	OrthoOrbital C 14   py \
	OrthoOrbital C 14   pz \
	OrthoOrbital C 15   s \
	OrthoOrbital C 15   p \
	OrthoOrbital C 15   px \
	OrthoOrbital C 15   py \
	OrthoOrbital C 15   pz \
	OrthoOrbital C 16   s \
	OrthoOrbital C 16   p \
	OrthoOrbital C 16   px \
	OrthoOrbital C 16   py \
	OrthoOrbital C 16   pz \
	OrthoOrbital C 17   s \
	OrthoOrbital C 17   p \
	OrthoOrbital C 17   px \
	OrthoOrbital C 17   py \
	OrthoOrbital C 17   pz \
	OrthoOrbital C 18   s \
	OrthoOrbital C 18   p \
	OrthoOrbital C 18   px \
	OrthoOrbital C 18   py \
	OrthoOrbital C 18   pz \
	OrthoOrbital C 19   s \
	OrthoOrbital C 19   p \
	OrthoOrbital C 19   px \
	OrthoOrbital C 19   py \
	OrthoOrbital C 19   pz \
	OrthoOrbital C 20   s \
	OrthoOrbital C 20   p \
	OrthoOrbital C 20   px \
	OrthoOrbital C 20   py \
	OrthoOrbital C 20   pz \
	OrthoOrbital C 21   s \
	OrthoOrbital C 21   p \
	OrthoOrbital C 21   px \
	OrthoOrbital C 21   py \
	OrthoOrbital C 21   pz \
	OrthoOrbital C 22   s \
	OrthoOrbital C 22   p \
	OrthoOrbital C 22   px \
	OrthoOrbital C 22   py \
	OrthoOrbital C 22   pz \
	OrthoOrbital C 23   s \
	OrthoOrbital C 23   p \
	OrthoOrbital C 23   px \
	OrthoOrbital C 23   py \
	OrthoOrbital C 23   pz \
	OrthoOrbital C 24   s \
	OrthoOrbital C 24   p \
	OrthoOrbital C 24   px \
	OrthoOrbital C 24   py \
	OrthoOrbital C 24   pz \
	OrthoOrbital C 25   s \
	OrthoOrbital C 25   p \
	OrthoOrbital C 25   px \
	OrthoOrbital C 25   py \
	OrthoOrbital C 25   pz \
	OrthoOrbital C 26   s \
	OrthoOrbital C 26   p \
	OrthoOrbital C 26   px \
	OrthoOrbital C 26   py \
	OrthoOrbital C 26   pz \
	OrthoOrbital C 27   s \
	OrthoOrbital C 27   p \
	OrthoOrbital C 27   px \
	OrthoOrbital C 27   py \
	OrthoOrbital C 27   pz \
	OrthoOrbital C 28   s \
	OrthoOrbital C 28   p \
	OrthoOrbital C 28   px \
	OrthoOrbital C 28   py \
	OrthoOrbital C 28   pz \
	OrthoOrbital C 29   s \
	OrthoOrbital C 29   p \
	OrthoOrbital C 29   px \
	OrthoOrbital C 29   py \
	OrthoOrbital C 29   pz \
	OrthoOrbital C 30   s \
	OrthoOrbital C 30   p \
	OrthoOrbital C 30   px \
	OrthoOrbital C 30   py \
	OrthoOrbital C 30   pz \
	OrthoOrbital C 31   s \
	OrthoOrbital C 31   p \
	OrthoOrbital C 31   px \
	OrthoOrbital C 31   py \
	OrthoOrbital C 31   pz \
	OrthoOrbital C 32   s \
	OrthoOrbital C 32   p \
	OrthoOrbital C 32   px \
	OrthoOrbital C 32   py \
	OrthoOrbital C 32   pz \
	OrthoOrbital C 33   s \
	OrthoOrbital C 33   p \
	OrthoOrbital C 33   px \
	OrthoOrbital C 33   py \
	OrthoOrbital C 33   pz \
	OrthoOrbital C 34   s \
	OrthoOrbital C 34   p \
	OrthoOrbital C 34   px \
	OrthoOrbital C 34   py \
	OrthoOrbital C 34   pz \
	OrthoOrbital C 35   s \
	OrthoOrbital C 35   p \
	OrthoOrbital C 35   px \
	OrthoOrbital C 35   py \
	OrthoOrbital C 35   pz \
	OrthoOrbital C 36   s \
	OrthoOrbital C 36   p \
	OrthoOrbital C 36   px \
	OrthoOrbital C 36   py \
	OrthoOrbital C 36   pz \
	OrthoOrbital C 37   s \
	OrthoOrbital C 37   p \
	OrthoOrbital C 37   px \
	OrthoOrbital C 37   py \
	OrthoOrbital C 37   pz \
	OrthoOrbital C 38   s \
	OrthoOrbital C 38   p \
	OrthoOrbital C 38   px \
	OrthoOrbital C 38   py \
	OrthoOrbital C 38   pz \
	OrthoOrbital C 39   s \
	OrthoOrbital C 39   p \
	OrthoOrbital C 39   px \
	OrthoOrbital C 39   py \
	OrthoOrbital C 39   pz \
	OrthoOrbital C 40   s \
	OrthoOrbital C 40   p \
	OrthoOrbital C 40   px \
	OrthoOrbital C 40   py \
	OrthoOrbital C 40   pz \
	OrthoOrbital C 41   s \
	OrthoOrbital C 41   p \
	OrthoOrbital C 41   px \
	OrthoOrbital C 41   py \
	OrthoOrbital C 41   pz \
	OrthoOrbital C 42   s \
	OrthoOrbital C 42   p \
	OrthoOrbital C 42   px \
	OrthoOrbital C 42   py \
	OrthoOrbital C 42   pz \
	OrthoOrbital C 43   s \
	OrthoOrbital C 43   p \
	OrthoOrbital C 43   px \
	OrthoOrbital C 43   py \
	OrthoOrbital C 43   pz \
	OrthoOrbital C 44   s \
	OrthoOrbital C 44   p \
	OrthoOrbital C 44   px \
	OrthoOrbital C 44   py \
	OrthoOrbital C 44   pz \
	OrthoOrbital C 45   s \
	OrthoOrbital C 45   p \
	OrthoOrbital C 45   px \
	OrthoOrbital C 45   py \
	OrthoOrbital C 45   pz \
	OrthoOrbital N 1   s \
	OrthoOrbital N 1   p \
	OrthoOrbital N 1   px \
	OrthoOrbital N 1   py \
	OrthoOrbital N 1   pz \
	OrthoOrbital N 2   s \
	OrthoOrbital N 2   p \
	OrthoOrbital N 2   px \
	OrthoOrbital N 2   py \
	OrthoOrbital N 2   pz \
	OrthoOrbital N 3   s \
	OrthoOrbital N 3   p \
	OrthoOrbital N 3   px \
	OrthoOrbital N 3   py \
	OrthoOrbital N 3   pz \
	OrthoOrbital N 4   s \
	OrthoOrbital N 4   p \
	OrthoOrbital N 4   px \
	OrthoOrbital N 4   py \
	OrthoOrbital N 4   pz \
	OrthoOrbital Ti 1   s \
	OrthoOrbital Ti 1   p \
	OrthoOrbital Ti 1   px \
	OrthoOrbital Ti 1   py \
	OrthoOrbital Ti 1   pz \
	OrthoOrbital Ti 1   d \
	OrthoOrbital Ti 1   dxy \
	OrthoOrbital Ti 1   dyz \
	OrthoOrbital Ti 1   dz2 \
	OrthoOrbital Ti 1   dxz \
	OrthoOrbital Ti 1   dx2-y2 \
	OrthoOrbital O 1   s \
	OrthoOrbital O 1   p \
	OrthoOrbital O 1   px \
	OrthoOrbital O 1   py \
	OrthoOrbital O 1   pz \
	OrthoOrbital O 2   s \
	OrthoOrbital O 2   p \
	OrthoOrbital O 2   px \
	OrthoOrbital O 2   py \
	OrthoOrbital O 2   pz
dump End ElecDensity KEdensity BandEigs EigStats RhoAtom DOS Kpoints
dump Ionic State IonicPositions Lattice EigStats Ecomponents
dump 
dump 
dump 
dump 
dump 
dump 
dump 
dump 
dump-name jdft.$VAR
elec-cutoff 20
elec-eigen-algo Davidson
elec-ex-corr gga-PBE
elec-initial-magnetization 0.000000 no
elec-n-bands 135
elec-smearing Fermi 0.001
electronic-minimize  \
	dirUpdateScheme      FletcherReeves \
	linminMethod         DirUpdateRecommended \
	nIterations          100 \
	history              15 \
	knormThreshold       0 \
	energyDiffThreshold  1e-07 \
	nEnergyDiff          2 \
	alphaTstart          1 \
	alphaTmin            1e-10 \
	updateTestStepSize   yes \
	alphaTreduceFactor   0.1 \
	alphaTincreaseFactor 3 \
	nAlphaAdjustMax      3 \
	wolfeEnergy          0.0001 \
	wolfeGradient        0.9 \
	fdTest               no
exchange-regularization WignerSeitzTruncated
fluid LinearPCM 298.000000 1.013250
fluid-anion F- 0.5 MeanFieldLJ \
	epsBulk 1 \
	pMol 0 \
	epsInf 1 \
	Pvap 0 \
	sigmaBulk 0 \
	Rvdw 2.24877 \
	Res 0 \
	tauNuc 343133
fluid-cation Na+ 0.5 MeanFieldLJ \
	epsBulk 1 \
	pMol 0 \
	epsInf 1 \
	Pvap 0 \
	sigmaBulk 0 \
	Rvdw 2.19208 \
	Res 0 \
	tauNuc 343133
fluid-ex-corr lda-TF lda-PZ
fluid-gummel-loop 10 1.000000e-05
fluid-minimize  \
	dirUpdateScheme      PolakRibiere \
	linminMethod         DirUpdateRecommended \
	nIterations          400 \
	history              15 \
	knormThreshold       1e-11 \
	energyDiffThreshold  0 \
	nEnergyDiff          2 \
	alphaTstart          1 \
	alphaTmin            1e-10 \
	updateTestStepSize   yes \
	alphaTreduceFactor   0.1 \
	alphaTincreaseFactor 3 \
	nAlphaAdjustMax      6 \
	wolfeEnergy          0.0001 \
	wolfeGradient        0.9 \
	fdTest               no
fluid-solvent H2O 55.338 ScalarEOS \
	epsBulk 78.4 \
	pMol 0.92466 \
	epsInf 1.77 \
	Pvap 1.06736e-10 \
	sigmaBulk 4.62e-05 \
	Rvdw 2.61727 \
	Res 1.42 \
	tauNuc 343133 \
	poleEl 15 7 1
forces-output-coords Positions
ion C  -0.002700000000000   0.052169000000000  43.288712000000004 1
ion C  21.041816000000004   4.010776000000001  43.276557000000004 1
ion C  18.698146999999999   8.014610000000001  43.194586000000008 1
ion C  -7.043596000000002  12.018356000000002  43.181479000000010 1
ion C  -9.370433000000000  16.031041000000002  43.249824000000004 1
ion C   4.683653000000000   0.158395000000000   0.071027000000000 1
ion C   2.286451000000000   4.169569000000001   0.146596000000000 1
ion C  -0.120053000000000   7.993199000000001   0.088286000000000 1
ion C  -2.433507000000001  12.005096000000002  43.247272000000009 1
ion C  -4.723526000000001  16.034628000000005  43.253934000000008 1
ion C   9.371490000000000   0.057192000000000  43.284732000000005 1
ion C   7.077166000000000   4.168918000000000   0.124838000000000 1
ion C  -0.030772000000001  15.939415000000002   0.046025000000000 1
ion C   2.343947999999999  19.899229000000002  43.290615000000010 1
ion C  11.757002000000004   4.002410000000001  43.258605000000003 1
ion C   9.476383000000000   7.998392000000001   0.046457000000000 1
ion C   4.671450000000000  15.798342000000002   0.129596000000000 1
ion C   6.993819999999999  19.903318000000002  43.289750000000005 1
ion C  16.399343999999999   3.984947000000001  43.230402000000005 1
ion C  14.094574000000001   8.010417000000002  43.182864000000009 1
ion C  11.782930000000000  12.015651999999999  43.226942000000008 1
ion C   9.373870999999999  15.948271999999999   0.032702000000000 1
ion C  -0.017557000000000   2.734072000000000   0.054892000000000 1
ion C  -2.426145000000000   6.663420000000000  43.258692000000003 1
ion C  -4.741538000000000  10.667614000000002  43.190044000000007 1
ion C  -7.046004000000002  14.693963000000002  43.223784000000009 1
ion C  -9.373259000000001  18.717561000000003  43.292994000000007 1
ion C   4.681762000000000   2.878952000000000   0.140713000000000 1
ion C  -0.125024000000000  10.680496000000002   0.079894000000000 1
ion C  -2.404059999999999  14.675821000000001  43.265310000000007 1
ion C  -4.724090000000000  18.720732000000005  43.291870000000010 1
ion C   9.382695000000000   2.738197000000000   0.037936000000000 1
ion C   2.275076999999998  14.505162000000004   0.132840000000000 1
ion C  -0.018301000000001  18.620620000000002  43.285641000000005 1
ion C  14.076433000000002   2.643862000000000  43.253977000000006 1
ion C  11.785277000000001   6.673014000000002  43.233128000000008 1
ion C   9.476638000000001  10.686731000000002   0.041829000000000 1
ion C   7.070028000000001  14.511856000000003   0.114240000000000 1
ion C   4.669817000000000  18.519139000000003   0.064668000000000 1
ion C  18.724523000000001   2.647910000000000  43.259471000000005 1
ion C  16.397406000000004   6.659916000000002  43.187535000000004 1
ion C  14.092874000000002  10.681916000000003  43.179966000000007 1
ion C  11.748618000000000  14.686707000000000  43.251771000000005 1
ion C   9.358428999999999  18.629416000000003  43.282613000000012 1
ion C   4.755700999999999   8.434086000000002   5.457476000000001 1
ion N   2.156148999999998  11.913155000000001   0.217709000000000 1
ion N   7.193935000000000  11.919417000000003   0.178173000000000 1
ion N   2.169653000000001   6.766543000000000   0.241500000000000 1
ion N   7.191229000000000   6.763894000000001   0.197379000000000 1
ion Ti   4.702579000000001   9.338856000000002   1.670905000000000 1
ion O   4.681539000000000  10.918070000000002   5.093863000000001 1
ion O   4.801844000000000   7.370501000000002   7.549135000000001 1
ion-species /projects/musgravc/apps/jdftx-1.6.0/build/pseudopotentials/GBRV_v1.5/$ID_pbe_v1.uspp
ion-species /projects/musgravc/apps/jdftx-1.6.0/build/pseudopotentials/GBRV_v1.5/$ID_pbe_v1.2.uspp
ion-species /projects/musgravc/apps/jdftx-1.6.0/build/pseudopotentials/GBRV_v1.5/$ID_pbe_v1.4.uspp
ion-species /projects/musgravc/apps/jdftx-1.6.0/build/pseudopotentials/GBRV_v1.5/$ID_pbe_v1.5.uspp
ion-width Ecut
ionic-minimize  \
	dirUpdateScheme      L-BFGS \
	linminMethod         DirUpdateRecommended \
	nIterations          0 \
	history              15 \
	knormThreshold       0.0001 \
	energyDiffThreshold  1e-06 \
	nEnergyDiff          2 \
	alphaTstart          1 \
	alphaTmin            1e-10 \
	updateTestStepSize   yes \
	alphaTreduceFactor   0.1 \
	alphaTincreaseFactor 3 \
	nAlphaAdjustMax      3 \
	wolfeEnergy          0.0001 \
	wolfeGradient        0.9 \
	fdTest               no
kpoint   0.000000000000   0.000000000000   0.000000000000  1.00000000000000
kpoint-folding 3 3 1 
latt-move-scale 0 0 0
latt-scale 1 1 1 
lattice  \
	  23.436261999999999  -11.733459000000000    0.000000000000000  \
	   0.017994000000000   19.941849000000001    0.000000000000000  \
	   0.000000000000000    0.000000000000000   43.256312999999999 
lattice-minimize  \
	dirUpdateScheme      L-BFGS \
	linminMethod         DirUpdateRecommended \
	nIterations          0 \
	history              15 \
	knormThreshold       0 \
	energyDiffThreshold  1e-06 \
	nEnergyDiff          2 \
	alphaTstart          1 \
	alphaTmin            1e-10 \
	updateTestStepSize   yes \
	alphaTreduceFactor   0.1 \
	alphaTincreaseFactor 3 \
	nAlphaAdjustMax      3 \
	wolfeEnergy          0.0001 \
	wolfeGradient        0.9 \
	fdTest               no
lcao-params 30 1e-06 0.001
pcm-variant CANDLE
spintype z-spin
subspace-rotation-factor 1 yes
symmetries none
symmetry-threshold 0.0001
target-mu -0.1455 no

van-der-waals D3


Applied RMS atom displacement 0 bohrs to make symmetries exact.

---------- Initializing the Grid ----------
R = 
[      23.4363     -11.7335            0  ]
[     0.017994      19.9418            0  ]
[            0            0      43.2563  ]
unit cell volume = 20225.5
G =
[   0.267976   0.157673         -0  ]
[ -0.000241801   0.314933          0  ]
[          0         -0   0.145255  ]
Minimum fftbox size, Smin = [  96  96  176  ]
Chosen fftbox size, S = [  96  96  180  ]

---------- Exchange Correlation functional ----------
Initalized PBE GGA exchange.
Initalized PBE GGA correlation.

---------- Setting up pseudopotentials ----------
Width of ionic core gaussian charges (only for fluid interactions / plotting) set to 0.397384

Reading pseudopotential file '/projects/musgravc/apps/jdftx-1.6.0/build/pseudopotentials/GBRV_v1.5/c_pbe_v1.2.uspp':
  Title: C.  Created by USPP 7.3.6 on 3-2-2014
  Reference state energy: -5.406344.  4 valence electrons in orbitals:
    |200>  occupation: 2  eigenvalue: -0.504890
    |210>  occupation: 2  eigenvalue: -0.194356
  lMax: 1  lLocal: 2  QijEcut: 5
  4 projectors sampled on a log grid with 503 points:
    l: 0  eig: -0.504890  rCut: 1.3
    l: 0  eig: 0.000000  rCut: 1.3
    l: 1  eig: -0.194357  rCut: 1.3
    l: 1  eig: 0.000000  rCut: 1.3
  Partial core density with radius 1.1
  Transforming core density to a uniform radial grid of dG=0.02 with 1464 points.
  Transforming local potential to a uniform radial grid of dG=0.02 with 1464 points.
  Transforming nonlocal projectors to a uniform radial grid of dG=0.02 with 432 points.
  Transforming density augmentations to a uniform radial grid of dG=0.02 with 1464 points.
  Transforming atomic orbitals to a uniform radial grid of dG=0.02 with 432 points.
  Core radius for overlap checks: 1.30 bohrs.

Reading pseudopotential file '/projects/musgravc/apps/jdftx-1.6.0/build/pseudopotentials/GBRV_v1.5/n_pbe_v1.2.uspp':
  Title: N.  Created by USPP 7.3.6 on 3-2-2014
  Reference state energy: -9.763716.  5 valence electrons in orbitals:
    |200>  occupation: 2  eigenvalue: -0.681964
    |210>  occupation: 3  eigenvalue: -0.260726
  lMax: 1  lLocal: 2  QijEcut: 6
  4 projectors sampled on a log grid with 491 points:
    l: 0  eig: -0.681964  rCut: 1.15
    l: 0  eig: 0.000000  rCut: 1.15
    l: 1  eig: -0.260729  rCut: 1.2
    l: 1  eig: 0.500000  rCut: 1.2
  Partial core density with radius 0.8
  Transforming core density to a uniform radial grid of dG=0.02 with 1464 points.
  Transforming local potential to a uniform radial grid of dG=0.02 with 1464 points.
  Transforming nonlocal projectors to a uniform radial grid of dG=0.02 with 432 points.
  Transforming density augmentations to a uniform radial grid of dG=0.02 with 1464 points.
  Transforming atomic orbitals to a uniform radial grid of dG=0.02 with 432 points.
  Core radius for overlap checks: 1.20 bohrs.

Reading pseudopotential file '/projects/musgravc/apps/jdftx-1.6.0/build/pseudopotentials/GBRV_v1.5/ti_pbe_v1.4.uspp':
  Title: Ti.  Created by USPP 7.3.6 on 31-3-15
  Reference state energy: -59.020943.  12 valence electrons in orbitals:
    |300>  occupation: 2  eigenvalue: -2.777623
    |310>  occupation: 6  eigenvalue: -1.894596
    |400>  occupation: 2  eigenvalue: -0.438610
    |320>  occupation: 1  eigenvalue: -0.583119
  lMax: 2  lLocal: 3  QijEcut: 6
  6 projectors sampled on a log grid with 597 points:
    l: 0  eig: -2.777624  rCut: 1.8
    l: 0  eig: -0.438611  rCut: 1.8
    l: 1  eig: -1.894596  rCut: 1.8
    l: 1  eig: 0.500000  rCut: 1.8
    l: 2  eig: -0.583118  rCut: 1.8
    l: 2  eig: 0.150000  rCut: 1.8
  Partial core density with radius 0.8
  Transforming core density to a uniform radial grid of dG=0.02 with 1464 points.
  Transforming local potential to a uniform radial grid of dG=0.02 with 1464 points.
  Transforming nonlocal projectors to a uniform radial grid of dG=0.02 with 432 points.
  Transforming density augmentations to a uniform radial grid of dG=0.02 with 1464 points.
  Transforming atomic orbitals to a uniform radial grid of dG=0.02 with 432 points.
  Core radius for overlap checks: 1.80 bohrs.

Reading pseudopotential file '/projects/musgravc/apps/jdftx-1.6.0/build/pseudopotentials/GBRV_v1.5/o_pbe_v1.2.uspp':
  Title: O.  Created by USPP 7.3.6 on 3-2-2014
  Reference state energy: -15.894388.  6 valence electrons in orbitals:
    |200>  occupation: 2  eigenvalue: -0.878823
    |210>  occupation: 4  eigenvalue: -0.332131
  lMax: 2  lLocal: 2  QijEcut: 6
  5 projectors sampled on a log grid with 511 points:
    l: 0  eig: -0.878823  rCut: 1.25
    l: 0  eig: 0.000000  rCut: 1.25
    l: 1  eig: -0.332132  rCut: 1.25
    l: 1  eig: 0.000000  rCut: 1.25
    l: 2  eig: 1.000000  rCut: 1.25
  Partial core density with radius 0.7
  Transforming core density to a uniform radial grid of dG=0.02 with 1464 points.
  Transforming local potential to a uniform radial grid of dG=0.02 with 1464 points.
  Transforming nonlocal projectors to a uniform radial grid of dG=0.02 with 432 points.
  Transforming density augmentations to a uniform radial grid of dG=0.02 with 1464 points.
  Transforming atomic orbitals to a uniform radial grid of dG=0.02 with 432 points.
  Core radius for overlap checks: 1.25 bohrs.

Initialized 4 species with 52 total atoms.

Folded 1 k-points by 3x3x1 to 9 k-points.

---------- Setting up k-points, bands, fillings ----------
No reducable k-points. 
Computing the number of bands and number of electrons
Calculating initial fillings.
nElectrons: 224.000000   nBands: 135   nStates: 18

----- Setting up reduced wavefunction bases (one per k-point) -----
average nbasis = 86412.556 , ideal nbasis = 86404.907

----- Initializing Supercell corresponding to k-point mesh -----
Lattice vector linear combinations in supercell:
[   3   0   0  ]
[   0   3   0  ]
[   0   0   1  ]
Supercell lattice vectors:
[  70.3088  -35.2004  0  ]
[  0.053982  59.8255  0  ]
[  0  0  43.2563  ]

Initializing DFT-D3 calculator:
	Parameters set for gga-PBE functional
	s6:  1.000  s_r6:  1.217
	s8:  0.722  s_r8:  1.000
	Per-atom parameters loaded for:
	 C:  sqrtQ[a0]:  3.105  Rcov[a0]:  1.417  CN: [ 0.00 0.99 2.00 3.00 3.98 ]
	 N:  sqrtQ[a0]:  2.712  Rcov[a0]:  1.342  CN: [ 0.00 0.99 2.01 2.99 ]
	Ti:  sqrtQ[a0]:  6.288  Rcov[a0]:  2.305  CN: [ 0.00 1.83 3.87 ]
	 O:  sqrtQ[a0]:  2.594  Rcov[a0]:  1.191  CN: [ 0.00 0.99 1.99 ]

Initializing DFT-D2 calculator for fluid / solvation:
	 C:  C6:   30.35 Eh-a0^6  R0: 2.744 a0
	 N:  C6:   21.33 Eh-a0^6  R0: 2.640 a0
	Ti:  C6:  187.33 Eh-a0^6  R0: 2.952 a0
	 O:  C6:   12.14 Eh-a0^6  R0: 2.536 a0

---------- Setting up ewald sum ----------
Optimum gaussian width for ewald sums = 5.626124 bohr.
Real space sum over 567 unit cells with max indices [  4  4  3  ]
Reciprocal space sum over 7803 terms with max indices [  8  8  13  ]

Computing DFT-D3 correction:
# coordination-number C 3.301 3.322 3.335 3.333 3.313 3.290 3.325 3.588 3.329 3.314 3.301 3.328 3.303 3.301 3.323 3.608 3.267 3.301 3.320 3.335 3.329 3.303 3.302 3.328 3.335 3.320 3.301 3.268 3.585 3.323 3.301 3.303 3.325 3.301 3.313 3.329 3.606 3.327 3.289 3.313 3.332 3.335 3.323 3.301 2.996
# coordination-number N 3.178 3.179 3.177 3.179
# coordination-number Ti 7.481
# coordination-number O 1.998 1.034
# diagonal-C6 C 24.28 24.06 23.92 23.94 24.15 24.38 24.02 20.42 23.98 24.15 24.27 24.00 24.25 24.28 24.05 20.18 24.58 24.28 24.08 23.92 23.98 24.25 24.26 24.00 23.92 24.08 24.27 24.57 20.46 24.05 24.27 24.25 24.03 24.28 24.15 23.99 20.21 24.01 24.38 24.15 23.95 23.92 24.05 24.28 25.68
# diagonal-C6 N 15.60 15.60 15.60 15.60
# diagonal-C6 Ti 321.59
# diagonal-C6 O 10.41 12.78
EvdW_6 =   -0.039674
EvdW_8 =   -0.031871

---------- Allocating electronic variables ----------
Initializing wave functions:  linear combination of atomic orbitals
C pseudo-atom occupations:   s ( 2 )  p ( 2 )
N pseudo-atom occupations:   s ( 2 )  p ( 3 )
Ti pseudo-atom occupations:   s ( 2 0 )  p ( 6 )  d ( 4 )
O pseudo-atom occupations:   s ( 2 )  p ( 4 )
	FillingsUpdate:  mu: -0.145500000  nElectrons: 224.000000  magneticMoment: [ Abs: 0.00435  Tot: +0.00001 ]
LCAOMinimize: Iter:   0  G: -349.1899274655434624  |grad|_K:  4.296e-03  alpha:  1.000e+00
	FillingsUpdate:  mu: -0.145500000  nElectrons: 224.000000  magneticMoment: [ Abs: 0.00427  Tot: -0.00000 ]
LCAOMinimize: Iter:   1  G: -350.5715273743209082  |grad|_K:  1.462e-03  alpha:  1.360e-01  linmin: -1.405e-01  cgtest:  1.795e+00  t[s]:    281.90
LCAOMinimize: Encountered beta<0, resetting CG.
LCAOMinimize: 	Wrong curvature in test step, increasing alphaT to 4.081418e-01.
	FillingsUpdate:  mu: -0.145500000  nElectrons: 224.000000  magneticMoment: [ Abs: 0.00474  Tot: -0.00061 ]
LCAOMinimize: Iter:   2  G: -350.8919011567487019  |grad|_K:  1.988e-03  alpha: -2.096e-01  linmin:  3.387e-02  cgtest:  5.047e-01  t[s]:    391.08
LCAOMinimize: 	Bad step direction: g.d > 0.
LCAOMinimize: 	Undoing step.
LCAOMinimize: 	Step failed: resetting search direction.
	FillingsUpdate:  mu: -0.145500000  nElectrons: 224.000000  magneticMoment: [ Abs: 0.00474  Tot: -0.00061 ]
LCAOMinimize: Iter:   3  G: -350.8919011567487019  |grad|_K:  1.988e-03  alpha:  0.000e+00
	FillingsUpdate:  mu: -0.145500000  nElectrons: 224.000000  magneticMoment: [ Abs: 0.00483  Tot: -0.00071 ]
LCAOMinimize: Iter:   4  G: -350.9841435602601791  |grad|_K:  1.338e-03  alpha:  6.670e-02  linmin: -7.224e-02  cgtest: -3.374e-01  t[s]:    585.03
LCAOMinimize: 	Wrong curvature in test step, increasing alphaT to 2.000864e-01.
	FillingsUpdate:  mu: -0.145500000  nElectrons: 224.000000  magneticMoment: [ Abs: 0.00546  Tot: -0.00138 ]
LCAOMinimize: Iter:   5  G: -351.1579947125500212  |grad|_K:  1.361e-03  alpha: -2.878e-01  linmin: -7.219e-02  cgtest:  7.637e-01  t[s]:    693.83
	FillingsUpdate:  mu: -0.145500000  nElectrons: 224.000000  magneticMoment: [ Abs: 0.00640  Tot: -0.00235 ]
LCAOMinimize: Iter:   6  G: -351.2473918927105387  |grad|_K:  1.277e-03  alpha:  3.961e-02  linmin: -5.856e-02  cgtest:  7.043e-01  t[s]:    805.53
LCAOMinimize: 	Wrong curvature in test step, increasing alphaT to 1.188301e-01.
	FillingsUpdate:  mu: -0.145500000  nElectrons: 224.000000  magneticMoment: [ Abs: 0.00717  Tot: -0.00314 ]
LCAOMinimize: Iter:   7  G: -351.3209974551606933  |grad|_K:  1.204e-03  alpha: -4.536e-01  linmin: -1.971e-01  cgtest:  8.536e-01  t[s]:    913.65
	FillingsUpdate:  mu: -0.145500000  nElectrons: 224.000000  magneticMoment: [ Abs: 0.00789  Tot: -0.00388 ]
LCAOMinimize: Iter:   8  G: -351.3642619094443944  |grad|_K:  1.179e-03  alpha:  3.083e-02  linmin: -2.567e-01  cgtest:  9.244e-01  t[s]:   1024.76
LCAOMinimize: 	Wrong curvature in test step, increasing alphaT to 9.247776e-02.
	FillingsUpdate:  mu: -0.145500000  nElectrons: 224.000000  magneticMoment: [ Abs: 0.00881  Tot: -0.00483 ]
LCAOMinimize: Iter:   9  G: -351.4030156003372554  |grad|_K:  1.146e-03  alpha: -7.628e-01  linmin: -2.568e-01  cgtest:  9.365e-01  t[s]:   1132.67
	FillingsUpdate:  mu: -0.145500000  nElectrons: 224.000000  magneticMoment: [ Abs: 0.00976  Tot: -0.00581 ]
LCAOMinimize: Iter:  10  G: -351.4340765938151776  |grad|_K:  1.110e-03  alpha:  2.697e-02  linmin: -2.604e-01  cgtest:  9.471e-01  t[s]:   1243.12
LCAOMinimize: 	Wrong curvature in test step, increasing alphaT to 8.089665e-02.
	FillingsUpdate:  mu: -0.145500000  nElectrons: 224.000000  magneticMoment: [ Abs: 0.01085  Tot: -0.00692 ]
LCAOMinimize: Iter:  11  G: -351.4626299960826259  |grad|_K:  1.068e-03  alpha: -1.705e+00  linmin: -2.663e-01  cgtest:  9.496e-01  t[s]:   1351.08
	FillingsUpdate:  mu: -0.145500000  nElectrons: 224.000000  magneticMoment: [ Abs: 0.01204  Tot: -0.00813 ]
LCAOMinimize: Iter:  12  G: -351.4871892351604856  |grad|_K:  1.021e-03  alpha:  2.549e-02  linmin: -2.717e-01  cgtest:  9.550e-01  t[s]:   1462.37
LCAOMinimize: 	Predicted alpha/alphaT>3.000000, increasing alphaT to 7.647854e-02.
LCAOMinimize: 	Predicted alpha/alphaT>3.000000, increasing alphaT to 2.294356e-01.
LCAOMinimize: 	Step increased G by 5.564195e-01, reducing alpha to 3.408680e-02.
	FillingsUpdate:  mu: -0.145500000  nElectrons: 224.000000  magneticMoment: [ Abs: 0.01383  Tot: -0.00994 ]
LCAOMinimize: Iter:  13  G: -351.5166951972141192  |grad|_K:  9.497e-04  alpha:  3.409e-02  linmin: -2.807e-01  cgtest:  9.434e-01  t[s]:   1711.87
LCAOMinimize: Encountered beta<0, resetting CG.
LCAOMinimize: 	Predicted alpha/alphaT>3.000000, increasing alphaT to 1.022604e-01.
LCAOMinimize: 	Predicted alpha/alphaT>3.000000, increasing alphaT to 3.067812e-01.
	FillingsUpdate:  mu: -0.145500000  nElectrons: 224.000000  magneticMoment: [ Abs: 0.02063  Tot: -0.01686 ]
LCAOMinimize: Iter:  14  G: -351.6004584234204344  |grad|_K:  5.379e-04  alpha:  1.251e-01  linmin: -3.158e-01  cgtest:  7.986e-01  t[s]:   1880.44
LCAOMinimize: Encountered beta<0, resetting CG.
	FillingsUpdate:  mu: -0.145500000  nElectrons: 224.000000  magneticMoment: [ Abs: 0.04131  Tot: -0.03789 ]
LCAOMinimize: Iter:  15  G: -351.6198512143398034  |grad|_K:  4.095e-04  alpha:  2.424e-01  linmin:  2.385e-01  cgtest: -5.795e-01  t[s]:   1991.14
LCAOMinimize: 	Bad step direction: g.d > 0.
LCAOMinimize: 	Undoing step.
LCAOMinimize: 	Step failed: resetting search direction.
	FillingsUpdate:  mu: -0.145500000  nElectrons: 224.000000  magneticMoment: [ Abs: 0.04131  Tot: -0.03789 ]
LCAOMinimize: Iter:  16  G: -351.6198512143398034  |grad|_K:  4.095e-04  alpha:  0.000e+00
	FillingsUpdate:  mu: -0.145500000  nElectrons: 224.000000  magneticMoment: [ Abs: 0.06851  Tot: -0.06522 ]
LCAOMinimize: Iter:  17  G: -351.6284160048282388  |grad|_K:  7.262e-05  alpha:  1.323e-01  linmin:  4.888e-02  cgtest: -3.651e-01  t[s]:   2183.50
	FillingsUpdate:  mu: -0.145500000  nElectrons: 224.000000  magneticMoment: [ Abs: 0.12601  Tot: -0.12290 ]
LCAOMinimize: Iter:  18  G: -351.6287544722239886  |grad|_K:  6.683e-05  alpha:  1.578e-01  linmin: -3.766e-02  cgtest:  8.773e-01  t[s]:   2294.47
	FillingsUpdate:  mu: -0.145500000  nElectrons: 224.000000  magneticMoment: [ Abs: 0.24010  Tot: -0.23696 ]
LCAOMinimize: Iter:  19  G: -351.6291969063203169  |grad|_K:  7.535e-05  alpha:  1.914e-01  linmin: -3.775e-02  cgtest:  7.086e-01  t[s]:   2405.92
LCAOMinimize: 	Wrong curvature in test step, increasing alphaT to 5.743015e-01.
	FillingsUpdate:  mu: -0.145500000  nElectrons: 224.000000  magneticMoment: [ Abs: 0.41300  Tot: -0.40897 ]
LCAOMinimize: Iter:  20  G: -351.6303654623724242  |grad|_K:  7.646e-05  alpha: -5.232e+00  linmin: -7.670e-02  cgtest:  1.405e+00  t[s]:   2514.34
LCAOMinimize: Encountered beta<0, resetting CG.
	FillingsUpdate:  mu: -0.145500000  nElectrons: 224.000000  magneticMoment: [ Abs: 0.51714  Tot: -0.50906 ]
LCAOMinimize: Iter:  21  G: -351.6310936266771137  |grad|_K:  5.011e-05  alpha:  3.128e-01  linmin:  1.702e-03  cgtest:  1.290e+00  t[s]:   2625.19
LCAOMinimize: Encountered beta<0, resetting CG.
	FillingsUpdate:  mu: -0.145500000  nElectrons: 224.000000  magneticMoment: [ Abs: 0.50489  Tot: -0.49478 ]
LCAOMinimize: Iter:  22  G: -351.6311616567809324  |grad|_K:  3.274e-05  alpha:  1.159e-01  linmin: -1.307e-04  cgtest:  1.605e-02  t[s]:   2740.24
	FillingsUpdate:  mu: -0.145500000  nElectrons: 224.000000  magneticMoment: [ Abs: 0.52517  Tot: -0.51138 ]
LCAOMinimize: Iter:  23  G: -351.6312348595624258  |grad|_K:  2.206e-05  alpha:  1.527e-01  linmin: -5.404e-02  cgtest:  5.485e-01  t[s]:   2854.90
	FillingsUpdate:  mu: -0.145500000  nElectrons: 224.000000  magneticMoment: [ Abs: 0.53963  Tot: -0.52194 ]
LCAOMinimize: Iter:  24  G: -351.6312928064452876  |grad|_K:  1.693e-05  alpha:  2.369e-01  linmin: -7.510e-02  cgtest:  4.834e-01  t[s]:   2967.33
	FillingsUpdate:  mu: -0.145500000  nElectrons: 224.000000  magneticMoment: [ Abs: 0.54177  Tot: -0.52107 ]
LCAOMinimize: Iter:  25  G: -351.6313145494473247  |grad|_K:  1.550e-05  alpha:  1.855e-01  linmin: -2.296e-02  cgtest:  3.926e-01  t[s]:   3077.72
	FillingsUpdate:  mu: -0.145500000  nElectrons: 224.000000  magneticMoment: [ Abs: 0.54956  Tot: -0.52745 ]
LCAOMinimize: Iter:  26  G: -351.6313186211777406  |grad|_K:  1.018e-05  alpha:  8.065e-02  linmin: -1.051e-01  cgtest:  6.675e-01  t[s]:   3188.31
LCAOMinimize: Encountered beta<0, resetting CG.
	FillingsUpdate:  mu: -0.145500000  nElectrons: 224.000000  magneticMoment: [ Abs: 0.55119  Tot: -0.52829 ]
LCAOMinimize: Iter:  27  G: -351.6313223383790501  |grad|_K:  9.429e-06  alpha:  8.354e-02  linmin: -1.146e-01  cgtest:  9.936e-01  t[s]:   3299.41
LCAOMinimize: Encountered beta<0, resetting CG.
	FillingsUpdate:  mu: -0.145500000  nElectrons: 224.000000  magneticMoment: [ Abs: 0.55272  Tot: -0.52925 ]
LCAOMinimize: Iter:  28  G: -351.6313239626441032  |grad|_K:  8.960e-06  alpha:  6.309e-02  linmin: -1.224e-01  cgtest:  1.000e+00  t[s]:   3409.91
LCAOMinimize: Encountered beta<0, resetting CG.
	FillingsUpdate:  mu: -0.145500000  nElectrons: 224.000000  magneticMoment: [ Abs: 0.55372  Tot: -0.52984 ]
LCAOMinimize: Iter:  29  G: -351.6313250920409246  |grad|_K:  8.631e-06  alpha:  4.813e-02  linmin: -1.234e-01  cgtest:  1.001e+00  t[s]:   3523.08
LCAOMinimize: Encountered beta<0, resetting CG.
	FillingsUpdate:  mu: -0.145500000  nElectrons: 224.000000  magneticMoment: [ Abs: 0.55443  Tot: -0.53026 ]
LCAOMinimize: Iter:  30  G: -351.6313258001642339  |grad|_K:  8.401e-06  alpha:  3.529e-02  linmin: -1.240e-01  cgtest:  1.001e+00  t[s]:   3633.52
LCAOMinimize: Encountered beta<0, resetting CG.
LCAOMinimize: None of the convergence criteria satisfied after 30 iterations.
----- createFluidSolver() ----- (Fluid-side solver setup)
   Initializing fluid molecule 'H2O'
     Initializing site 'O'
       Electron density: proportional to exp(-r/0.36935)*erfc((r-0.51523)/0.36823) with norm 6.826
       Charge density: gaussian nuclear width 0.478731 with net site charge 0.826
       Polarizability: cuspless exponential with width 0.32 and norm 3.73
       Hard sphere radius: 2.57003 bohrs
       Positions in reference frame:
         [ +0.000000 +0.000000 +0.000000 ]
     Initializing site 'H'
       Electron density: proportional to exp(-r/0.34641)*erfc((r-0)/0.390882) with norm 0.587
       Charge density: gaussian nuclear width 0.377945 with net site charge -0.413
       Polarizability: cuspless exponential with width 0.39 and norm 3.3
       Positions in reference frame:
         [ +0.000000 -1.441945 +1.122523 ]
         [ +0.000000 +1.441945 +1.122523 ]
     Net charge: 0   dipole magnitude: 0.927204
     Initializing spherical shell mfKernel with radius 2.61727 Bohr
     deltaS corrections:
       site 'O': -7.54299
       site 'H': -6.83917
   Initializing fluid molecule 'Na+'
     Initializing site 'Na'
       Electron density: proportional to exp(-r/0.19682)*erfc((r-0.71491)/0.41314) with norm 8.1383
       Charge density: gaussian nuclear width 0.365347 with net site charge -1
       Hard sphere radius: 1.86327 bohrs
       Positions in reference frame:
         [ +0.000000 +0.000000 +0.000000 ]
     Net charge: -1   dipole magnitude: 0
     Initializing gaussian mfKernel with width: 1.55004 Bohr
     deltaS corrections:
       site 'Na': -22.3555
   Initializing fluid molecule 'F-'
     Initializing site 'F'
       Electron density: proportional to exp(-r/0.38886)*erfc((r-0)/0.438782) with norm 8
       Charge density: gaussian nuclear width 0.374796 with net site charge 1
       Hard sphere radius: 2.39995 bohrs
       Positions in reference frame:
         [ +0.000000 +0.000000 +0.000000 ]
     Net charge: 1   dipole magnitude: 0
     Initializing gaussian mfKernel with width: 1.59012 Bohr
     deltaS corrections:
       site 'F': -9.04335

Correction to mu due to finite nuclear width = -0.0109887
   Cavity determined by nc: 0.00142 and sigma: 0.707107
   Nonlocal vdW cavity from gaussian model electron density with norm = 8 and sigma = 0.993594 bohr
   Charge asymmetry in cavity with sensitivity pCavity = 36.5 e-bohr/Eh
   Electrostatic cavity expanded by eta = 1.46 bohrs
   Weighted density cavitation model constrained by Nbulk: 0.0049383 bohr^-3, Pvap: 3.14029 kPa, Rvdw: 2.61727 bohr and sigmaBulk: 4.62e-05 Eh/bohr^2 at T: 298 K.
   Weighted density dispersion model using vdW pair potentials with single solvent site with sqrtC6eff: 0.77 SI.


---- Citations for features of the code used in this run ----

   Software package:
      R. Sundararaman, K. Letchworth-Weaver, K.A. Schwarz, D. Gunceler, Y. Ozhabes and T.A. Arias, 'JDFTx: software for joint density-functional theory', SoftwareX 6, 278 (2017)

   gga-PBE exchange-correlation functional:
      J.P. Perdew, K. Burke and M. Ernzerhof, Phys. Rev. Lett. 77, 3865 (1996)

   Pseudopotentials:
      KF Garrity, JW Bennett, KM Rabe and D Vanderbilt, Comput. Mater. Sci. 81, 446 (2014)

   DFT-D3 dispersion correction:
      S. Grimme, J. Antony, S. Ehrlich and H. Krieg, J. Chem. Phys. 132, 154104 (2010)

   DFT-D2 dispersion correction:
      S. Grimme, J. Comput. Chem. 27, 1787 (2006)

   Charge-asymmetric nonlocally-determined local-electric (CANDLE) solvation model:
      R. Sundararaman and W.A. Goddard III, J. Chem. Phys. 142, 064107 (2015)

   Total energy minimization with Auxiliary Hamiltonian:
      C. Freysoldt, S. Boeck, and J. Neugebauer, Phys. Rev. B 79, 241103(R) (2009)

   Grand-canonical (fixed-potential) DFT:
      R. Sundararaman, W. A. Goddard III and T. A. Arias, J. Chem. Phys. 146, 114104 (2017)

   Linear-tetrahedron sampling for density of states:
      G. Lehmann and M. Taut, Phys. status solidi (b) 54, 469 (1972)

This list may not be complete. Please suggest additional citations or
report any other bugs at https://github.com/shankar1729/jdftx/issues

Initialization completed successfully at t[s]:   3648.16


Computing DFT-D3 correction:
# coordination-number C 3.301 3.322 3.335 3.333 3.313 3.290 3.325 3.588 3.329 3.314 3.301 3.328 3.303 3.301 3.323 3.608 3.267 3.301 3.320 3.335 3.329 3.303 3.302 3.328 3.335 3.320 3.301 3.268 3.585 3.323 3.301 3.303 3.325 3.301 3.313 3.329 3.606 3.327 3.289 3.313 3.332 3.335 3.323 3.301 2.996
# coordination-number N 3.178 3.179 3.177 3.179
# coordination-number Ti 7.481
# coordination-number O 1.998 1.034
# diagonal-C6 C 24.28 24.06 23.92 23.94 24.15 24.38 24.02 20.42 23.98 24.15 24.27 24.00 24.25 24.28 24.05 20.18 24.58 24.28 24.08 23.92 23.98 24.25 24.26 24.00 23.92 24.08 24.27 24.57 20.46 24.05 24.27 24.25 24.03 24.28 24.15 23.99 20.21 24.01 24.38 24.15 23.95 23.92 24.05 24.28 25.68
# diagonal-C6 N 15.60 15.60 15.60 15.60
# diagonal-C6 Ti 321.59
# diagonal-C6 O 10.41 12.78
EvdW_6 =   -0.039674
EvdW_8 =   -0.031871
Fluid solver invoked on fresh (random / LCAO) wavefunctions
Running a vacuum solve first:

-------- Initial electronic minimization -----------
	FillingsUpdate:  mu: -0.210575673  nElectrons: 224.000000  magneticMoment: [ Abs: 0.55443  Tot: -0.53026 ]
ElecMinimize: Iter:   0  G: -351.631334929847014  |grad|_K:  1.444e-04  alpha:  1.000e+00
	FillingsUpdate:  mu: -0.136656937  nElectrons: 224.000000  magneticMoment: [ Abs: 0.59219  Tot: -0.53819 ]
	SubspaceRotationAdjust: set factor to 1
ElecMinimize: Iter:   1  G: -354.575572949891523  |grad|_K:  5.530e-05  alpha:  6.810e-01  linmin:  1.023e-04  t[s]:   3827.40
	FillingsUpdate:  mu: -0.078051951  nElectrons: 224.000000  magneticMoment: [ Abs: 0.28415  Tot: -0.19803 ]
	SubspaceRotationAdjust: set factor to 0.785
ElecMinimize: Iter:   2  G: -354.682301175137582  |grad|_K:  3.629e-05  alpha:  1.427e-01  linmin: -1.173e-03  t[s]:   3936.68
	FillingsUpdate:  mu: -0.092946561  nElectrons: 224.000000  magneticMoment: [ Abs: 0.39379  Tot: -0.32792 ]
	SubspaceRotationAdjust: set factor to 0.593
ElecMinimize: Iter:   3  G: -354.825623043071062  |grad|_K:  3.284e-05  alpha:  4.090e-01  linmin:  1.058e-04  t[s]:   4044.71
	FillingsUpdate:  mu: -0.103632940  nElectrons: 224.000000  magneticMoment: [ Abs: 0.23221  Tot: -0.17569 ]
	SubspaceRotationAdjust: set factor to 0.569
ElecMinimize: Iter:   4  G: -354.862414493951519  |grad|_K:  1.797e-05  alpha:  2.062e-01  linmin:  8.331e-05  t[s]:   4155.28
	FillingsUpdate:  mu: -0.114865867  nElectrons: 224.000000  magneticMoment: [ Abs: 0.15222  Tot: -0.09534 ]
	SubspaceRotationAdjust: set factor to 0.639
ElecMinimize: Iter:   5  G: -354.891803615691060  |grad|_K:  1.391e-05  alpha:  4.545e-01  linmin: -2.786e-05  t[s]:   4263.44
	FillingsUpdate:  mu: -0.105377352  nElectrons: 224.000000  magneticMoment: [ Abs: 0.20553  Tot: -0.16703 ]
	SubspaceRotationAdjust: set factor to 0.526
ElecMinimize: Iter:   6  G: -354.903606943497721  |grad|_K:  8.733e-06  alpha:  2.681e-01  linmin: -1.834e-04  t[s]:   4373.70
	FillingsUpdate:  mu: -0.092339779  nElectrons: 224.000000  magneticMoment: [ Abs: 0.14301  Tot: -0.08885 ]
	SubspaceRotationAdjust: set factor to 0.463
ElecMinimize: Iter:   7  G: -354.908549212927596  |grad|_K:  7.312e-06  alpha:  2.981e-01  linmin: -3.828e-04  t[s]:   4482.26
	FillingsUpdate:  mu: -0.100254890  nElectrons: 224.000000  magneticMoment: [ Abs: 0.14711  Tot: -0.11477 ]
	SubspaceRotationAdjust: set factor to 0.552
ElecMinimize: Iter:   8  G: -354.912579197210221  |grad|_K:  4.222e-06  alpha:  3.422e-01  linmin:  1.248e-05  t[s]:   4591.12
	FillingsUpdate:  mu: -0.105884075  nElectrons: 224.000000  magneticMoment: [ Abs: 0.16628  Tot: -0.14509 ]
	SubspaceRotationAdjust: set factor to 0.484
ElecMinimize: Iter:   9  G: -354.913907978883913  |grad|_K:  3.761e-06  alpha:  3.561e-01  linmin:  4.832e-05  t[s]:   4698.97
	FillingsUpdate:  mu: -0.102755856  nElectrons: 224.000000  magneticMoment: [ Abs: 0.13243  Tot: -0.10805 ]
	SubspaceRotationAdjust: set factor to 0.469
ElecMinimize: Iter:  10  G: -354.914553264902395  |grad|_K:  2.116e-06  alpha:  2.277e-01  linmin:  5.973e-06  t[s]:   4806.76
	FillingsUpdate:  mu: -0.102009438  nElectrons: 224.000000  magneticMoment: [ Abs: 0.12708  Tot: -0.10418 ]
	SubspaceRotationAdjust: set factor to 0.43
ElecMinimize: Iter:  11  G: -354.914913528495902  |grad|_K:  1.834e-06  alpha:  3.850e-01  linmin:  1.146e-05  t[s]:   4916.75
	FillingsUpdate:  mu: -0.103845169  nElectrons: 224.000000  magneticMoment: [ Abs: 0.13191  Tot: -0.11414 ]
	SubspaceRotationAdjust: set factor to 0.477
ElecMinimize: Iter:  12  G: -354.915185395459048  |grad|_K:  1.339e-06  alpha:  3.876e-01  linmin:  9.357e-06  t[s]:   5024.43
	FillingsUpdate:  mu: -0.103161609  nElectrons: 224.000000  magneticMoment: [ Abs: 0.12247  Tot: -0.10560 ]
	SubspaceRotationAdjust: set factor to 0.408
ElecMinimize: Iter:  13  G: -354.915293218830016  |grad|_K:  9.745e-07  alpha:  2.884e-01  linmin: -3.777e-06  t[s]:   5133.48
	FillingsUpdate:  mu: -0.103046622  nElectrons: 224.000000  magneticMoment: [ Abs: 0.11995  Tot: -0.10535 ]
	SubspaceRotationAdjust: set factor to 0.467
ElecMinimize: Iter:  14  G: -354.915393519835334  |grad|_K:  7.743e-07  alpha:  5.016e-01  linmin: -2.301e-06  t[s]:   5242.33
	FillingsUpdate:  mu: -0.103659193  nElectrons: 224.000000  magneticMoment: [ Abs: 0.12300  Tot: -0.11001 ]
	SubspaceRotationAdjust: set factor to 0.391
ElecMinimize: Iter:  15  G: -354.915435973812635  |grad|_K:  6.180e-07  alpha:  3.358e-01  linmin:  5.313e-06  t[s]:   5353.39
	FillingsUpdate:  mu: -0.103187942  nElectrons: 224.000000  magneticMoment: [ Abs: 0.11664  Tot: -0.10399 ]
	SubspaceRotationAdjust: set factor to 0.397
ElecMinimize: Iter:  16  G: -354.915467020696099  |grad|_K:  4.351e-07  alpha:  3.869e-01  linmin: -5.740e-05  t[s]:   5462.13
	FillingsUpdate:  mu: -0.103383510  nElectrons: 224.000000  magneticMoment: [ Abs: 0.11493  Tot: -0.10299 ]
	SubspaceRotationAdjust: set factor to 0.388
ElecMinimize: Iter:  17  G: -354.915483824673743  |grad|_K:  3.446e-07  alpha:  4.208e-01  linmin: -3.968e-06  t[s]:   5570.80
	FillingsUpdate:  mu: -0.103771885  nElectrons: 224.000000  magneticMoment: [ Abs: 0.11685  Tot: -0.10577 ]
	SubspaceRotationAdjust: set factor to 0.363
ElecMinimize: Iter:  18  G: -354.915494268150951  |grad|_K:  2.561e-07  alpha:  4.180e-01  linmin:  3.883e-06  t[s]:   5679.30
	FillingsUpdate:  mu: -0.103492878  nElectrons: 224.000000  magneticMoment: [ Abs: 0.11523  Tot: -0.10428 ]
	SubspaceRotationAdjust: set factor to 0.34
ElecMinimize: Iter:  19  G: -354.915499235547941  |grad|_K:  1.915e-07  alpha:  3.611e-01  linmin:  2.056e-08  t[s]:   5790.29
	FillingsUpdate:  mu: -0.103399630  nElectrons: 224.000000  magneticMoment: [ Abs: 0.11391  Tot: -0.10315 ]
	SubspaceRotationAdjust: set factor to 0.368
ElecMinimize: Iter:  20  G: -354.915503322320944  |grad|_K:  1.525e-07  alpha:  5.304e-01  linmin:  2.479e-07  t[s]:   5898.97
	FillingsUpdate:  mu: -0.103577026  nElectrons: 224.000000  magneticMoment: [ Abs: 0.11432  Tot: -0.10381 ]
	SubspaceRotationAdjust: set factor to 0.335
ElecMinimize: Iter:  21  G: -354.915505031080670  |grad|_K:  1.080e-07  alpha:  3.494e-01  linmin:  7.200e-08  t[s]:   6008.89
	FillingsUpdate:  mu: -0.103538361  nElectrons: 224.000000  magneticMoment: [ Abs: 0.11360  Tot: -0.10322 ]
	SubspaceRotationAdjust: set factor to 0.344
ElecMinimize: Iter:  22  G: -354.915506240321008  |grad|_K:  8.719e-08  alpha:  4.935e-01  linmin:  3.768e-08  t[s]:   6117.58
	FillingsUpdate:  mu: -0.103466381  nElectrons: 224.000000  magneticMoment: [ Abs: 0.11297  Tot: -0.10267 ]
	SubspaceRotationAdjust: set factor to 0.342
ElecMinimize: Iter:  23  G: -354.915506931891571  |grad|_K:  6.853e-08  alpha:  4.328e-01  linmin: -5.013e-07  t[s]:   6228.75
	FillingsUpdate:  mu: -0.103528144  nElectrons: 224.000000  magneticMoment: [ Abs: 0.11311  Tot: -0.10295 ]
	SubspaceRotationAdjust: set factor to 0.317
ElecMinimize: Iter:  24  G: -354.915507351586655  |grad|_K:  5.032e-08  alpha:  4.252e-01  linmin:  1.027e-06  t[s]:   6337.69
	FillingsUpdate:  mu: -0.103531814  nElectrons: 224.000000  magneticMoment: [ Abs: 0.11287  Tot: -0.10277 ]
	SubspaceRotationAdjust: set factor to 0.337
ElecMinimize: Iter:  25  G: -354.915507580710198  |grad|_K:  3.828e-08  alpha:  4.305e-01  linmin: -1.273e-06  t[s]:   6448.82
	FillingsUpdate:  mu: -0.103499837  nElectrons: 224.000000  magneticMoment: [ Abs: 0.11250  Tot: -0.10242 ]
	SubspaceRotationAdjust: set factor to 0.319
ElecMinimize: Iter:  26  G: -354.915507723557994  |grad|_K:  3.057e-08  alpha:  4.639e-01  linmin: -2.292e-06  t[s]:   6557.57
	FillingsUpdate:  mu: -0.103522889  nElectrons: 224.000000  magneticMoment: [ Abs: 0.11253  Tot: -0.10252 ]
	SubspaceRotationAdjust: set factor to 0.321
ElecMinimize: Iter:  27  G: -354.915507808051530  |grad|_K:  2.340e-08  alpha:  4.301e-01  linmin:  1.658e-06  t[s]:   6666.18
	FillingsUpdate:  mu: -0.103534012  nElectrons: 224.000000  magneticMoment: [ Abs: 0.11252  Tot: -0.10255 ]
	SubspaceRotationAdjust: set factor to 0.325
ElecMinimize: Iter:  28  G: -354.915507862069603  |grad|_K:  1.794e-08  alpha:  4.690e-01  linmin:  2.157e-07  t[s]:   6774.88
ElecMinimize: Converged (|Delta G|<1.000000e-07 for 2 iters).
Setting wave functions to eigenvectors of Hamiltonian
Converging empty states (this may take a while): |deigs|: 7.746e-03
Vacuum energy after initial minimize, F = -354.915507862069603

Shifting auxilliary hamiltonian by -0.041966 to set nElectrons=224.000000

-------- Electronic minimization -----------
	Linear fluid (dielectric constant: 78.4, screening length: 8.12261 Bohr) occupying 0.723610 of unit cell:	Completed after 22 iterations at t[s]:   7322.69
	FillingsUpdate:  mu: -0.145500000  nElectrons: 224.000000  magneticMoment: [ Abs: 0.11148  Tot: -0.10144 ]
ElecMinimize: Iter:   0  G: -354.919358117665013  |grad|_K:  1.540e-05  alpha:  1.000e+00
	Linear fluid (dielectric constant: 78.4, screening length: 8.12261 Bohr) occupying 0.727372 of unit cell:	Completed after 18 iterations at t[s]:   7427.96
	Linear fluid (dielectric constant: 78.4, screening length: 8.12261 Bohr) occupying 0.726161 of unit cell:	Completed after 16 iterations at t[s]:   7472.98
	FillingsUpdate:  mu: -0.145500000  nElectrons: 224.292037  magneticMoment: [ Abs: 0.03237  Tot: -0.00241 ]
	SubspaceRotationAdjust: set factor to 0.487
ElecMinimize: Iter:   1  G: -354.928144116874705  |grad|_K:  3.843e-06  alpha:  5.551e-01  linmin: -2.909e-03  t[s]:   7520.88
	Linear fluid (dielectric constant: 78.4, screening length: 8.12261 Bohr) occupying 0.726657 of unit cell:	Completed after 13 iterations at t[s]:   7569.60
	Linear fluid (dielectric constant: 78.4, screening length: 8.12261 Bohr) occupying 0.726935 of unit cell:	Completed after 12 iterations at t[s]:   7611.13
	FillingsUpdate:  mu: -0.145500000  nElectrons: 224.332715  magneticMoment: [ Abs: 0.01984  Tot: -0.00146 ]
	SubspaceRotationAdjust: set factor to 0.465
ElecMinimize: Iter:   2  G: -354.930973586286200  |grad|_K:  3.657e-06  alpha:  8.714e-01  linmin: -5.159e-05  t[s]:   7658.11
	Linear fluid (dielectric constant: 78.4, screening length: 8.12261 Bohr) occupying 0.728606 of unit cell:	Completed after 14 iterations at t[s]:   7707.55
	Linear fluid (dielectric constant: 78.4, screening length: 8.12261 Bohr) occupying 0.728262 of unit cell:	Completed after 10 iterations at t[s]:   7748.81
	FillingsUpdate:  mu: -0.145500000  nElectrons: 224.420855  magneticMoment: [ Abs: 0.01121  Tot: -0.00018 ]
	SubspaceRotationAdjust: set factor to 0.508
ElecMinimize: Iter:   3  G: -354.932870362048448  |grad|_K:  2.636e-06  alpha:  6.741e-01  linmin: -3.162e-05  t[s]:   7796.61
	Linear fluid (dielectric constant: 78.4, screening length: 8.12261 Bohr) occupying 0.729010 of unit cell:	Completed after 13 iterations at t[s]:   7845.53
	Linear fluid (dielectric constant: 78.4, screening length: 8.12261 Bohr) occupying 0.728728 of unit cell:	Completed after 10 iterations at t[s]:   7885.66
	FillingsUpdate:  mu: -0.145500000  nElectrons: 224.432572  magneticMoment: [ Abs: 0.00829  Tot: -0.00003 ]
	SubspaceRotationAdjust: set factor to 0.457
ElecMinimize: Iter:   4  G: -354.933464075321979  |grad|_K:  1.084e-06  alpha:  4.094e-01  linmin:  1.740e-05  t[s]:   7932.68
	Linear fluid (dielectric constant: 78.4, screening length: 8.12261 Bohr) occupying 0.728762 of unit cell:	Completed after 8 iterations at t[s]:   7977.31
	Linear fluid (dielectric constant: 78.4, screening length: 8.12261 Bohr) occupying 0.728785 of unit cell:	Completed after 7 iterations at t[s]:   8015.45
	FillingsUpdate:  mu: -0.145500000  nElectrons: 224.437160  magneticMoment: [ Abs: 0.00573  Tot: -0.00000 ]
	SubspaceRotationAdjust: set factor to 0.382
ElecMinimize: Iter:   5  G: -354.933632410294706  |grad|_K:  5.736e-07  alpha:  6.837e-01  linmin: -5.917e-06  t[s]:   8062.34
	Linear fluid (dielectric constant: 78.4, screening length: 8.12261 Bohr) occupying 0.728716 of unit cell:	Completed after 8 iterations at t[s]:   8106.87
	Linear fluid (dielectric constant: 78.4, screening length: 8.12261 Bohr) occupying 0.728711 of unit cell:	Completed after 2 iterations at t[s]:   8142.16
	FillingsUpdate:  mu: -0.145500000  nElectrons: 224.437071  magneticMoment: [ Abs: 0.00448  Tot: +0.00001 ]
	SubspaceRotationAdjust: set factor to 0.317
ElecMinimize: Iter:   6  G: -354.933683246965700  |grad|_K:  4.383e-07  alpha:  7.346e-01  linmin: -5.041e-05  t[s]:   8188.85
	Linear fluid (dielectric constant: 78.4, screening length: 8.12261 Bohr) occupying 0.728647 of unit cell:	Completed after 6 iterations at t[s]:   8233.81
	Linear fluid (dielectric constant: 78.4, screening length: 8.12261 Bohr) occupying 0.728664 of unit cell:	Completed after 2 iterations at t[s]:   8269.12
	FillingsUpdate:  mu: -0.145500000  nElectrons: 224.436934  magneticMoment: [ Abs: 0.00350  Tot: +0.00001 ]
	SubspaceRotationAdjust: set factor to 0.294
ElecMinimize: Iter:   7  G: -354.933705328150040  |grad|_K:  2.870e-07  alpha:  5.442e-01  linmin:  2.888e-05  t[s]:   8317.04
	Linear fluid (dielectric constant: 78.4, screening length: 8.12261 Bohr) occupying 0.728643 of unit cell:	Completed after 3 iterations at t[s]:   8359.67
	Linear fluid (dielectric constant: 78.4, screening length: 8.12261 Bohr) occupying 0.728639 of unit cell:	Completed after 0 iterations at t[s]:   8393.02
	FillingsUpdate:  mu: -0.145500000  nElectrons: 224.436491  magneticMoment: [ Abs: 0.00247  Tot: +0.00001 ]
	SubspaceRotationAdjust: set factor to 0.316
ElecMinimize: Iter:   8  G: -354.933716205653127  |grad|_K:  1.601e-07  alpha:  6.273e-01  linmin: -4.011e-04  t[s]:   8439.81
	Linear fluid (dielectric constant: 78.4, screening length: 8.12261 Bohr) occupying 0.728635 of unit cell:	Completed after 2 iterations at t[s]:   8480.87
	Linear fluid (dielectric constant: 78.4, screening length: 8.12261 Bohr) occupying 0.728634 of unit cell:	Completed after 0 iterations at t[s]:   8514.27
	FillingsUpdate:  mu: -0.145500000  nElectrons: 224.435983  magneticMoment: [ Abs: 0.00159  Tot: +0.00001 ]
	SubspaceRotationAdjust: set factor to 0.328
ElecMinimize: Iter:   9  G: -354.933721237848715  |grad|_K:  1.049e-07  alpha:  8.905e-01  linmin: -5.334e-04  t[s]:   8561.91
	Linear fluid (dielectric constant: 78.4, screening length: 8.12261 Bohr) occupying 0.728638 of unit cell:	Completed after 2 iterations at t[s]:   8603.94
	Linear fluid (dielectric constant: 78.4, screening length: 8.12261 Bohr) occupying 0.728637 of unit cell:	Completed after 0 iterations at t[s]:   8637.80
	FillingsUpdate:  mu: -0.145500000  nElectrons: 224.435699  magneticMoment: [ Abs: 0.00111  Tot: +0.00001 ]
	SubspaceRotationAdjust: set factor to 0.338
ElecMinimize: Iter:  10  G: -354.933722978728383  |grad|_K:  8.777e-08  alpha:  7.159e-01  linmin:  1.930e-04  t[s]:   8684.77
	Linear fluid (dielectric constant: 78.4, screening length: 8.12261 Bohr) occupying 0.728641 of unit cell:	Completed after 1 iterations at t[s]:   8724.97
	Linear fluid (dielectric constant: 78.4, screening length: 8.12261 Bohr) occupying 0.728639 of unit cell:	Completed after 0 iterations at t[s]:   8759.40
	FillingsUpdate:  mu: -0.145500000  nElectrons: 224.435569  magneticMoment: [ Abs: 0.00081  Tot: +0.00001 ]
	SubspaceRotationAdjust: set factor to 0.342
ElecMinimize: Iter:  11  G: -354.933723754756954  |grad|_K:  6.424e-08  alpha:  4.897e-01  linmin:  4.409e-04  t[s]:   8806.29
	Linear fluid (dielectric constant: 78.4, screening length: 8.12261 Bohr) occupying 0.728642 of unit cell:	Completed after 1 iterations at t[s]:   8846.50
	Linear fluid (dielectric constant: 78.4, screening length: 8.12261 Bohr) occupying 0.728641 of unit cell:	Completed after 0 iterations at t[s]:   8879.67
	FillingsUpdate:  mu: -0.145500000  nElectrons: 224.435565  magneticMoment: [ Abs: 0.00063  Tot: +0.00001 ]
	SubspaceRotationAdjust: set factor to 0.277
ElecMinimize: Iter:  12  G: -354.933724055891730  |grad|_K:  3.886e-08  alpha:  3.952e-01  linmin: -4.804e-04  t[s]:   8926.39
	Linear fluid (dielectric constant: 78.4, screening length: 8.12261 Bohr) occupying 0.728642 of unit cell:	Completed after 0 iterations at t[s]:   8966.78
	Linear fluid (dielectric constant: 78.4, screening length: 8.12261 Bohr) occupying 0.728643 of unit cell:	Completed after 1 iterations at t[s]:   9001.20
	FillingsUpdate:  mu: -0.145500000  nElectrons: 224.435580  magneticMoment: [ Abs: 0.00043  Tot: +0.00000 ]
	SubspaceRotationAdjust: set factor to 0.275
ElecMinimize: Iter:  13  G: -354.933724239351818  |grad|_K:  2.708e-08  alpha:  7.196e-01  linmin:  6.897e-04  t[s]:   9048.88
	Linear fluid (dielectric constant: 78.4, screening length: 8.12261 Bohr) occupying 0.728644 of unit cell:	Completed after 0 iterations at t[s]:   9089.01
	Linear fluid (dielectric constant: 78.4, screening length: 8.12261 Bohr) occupying 0.728644 of unit cell:	Completed after 0 iterations at t[s]:   9122.55
	FillingsUpdate:  mu: -0.145500000  nElectrons: 224.435617  magneticMoment: [ Abs: 0.00029  Tot: +0.00000 ]
	SubspaceRotationAdjust: set factor to 0.284
ElecMinimize: Iter:  14  G: -354.933724323775891  |grad|_K:  1.759e-08  alpha:  6.665e-01  linmin:  1.507e-06  t[s]:   9169.46
	Linear fluid (dielectric constant: 78.4, screening length: 8.12261 Bohr) occupying 0.728645 of unit cell:	Completed after 0 iterations at t[s]:   9209.62
	Linear fluid (dielectric constant: 78.4, screening length: 8.12261 Bohr) occupying 0.728645 of unit cell:	Completed after 0 iterations at t[s]:   9242.73
	FillingsUpdate:  mu: -0.145500000  nElectrons: 224.435651  magneticMoment: [ Abs: 0.00022  Tot: +0.00000 ]
	SubspaceRotationAdjust: set factor to 0.304
ElecMinimize: Iter:  15  G: -354.933724361193981  |grad|_K:  1.155e-08  alpha:  5.756e-01  linmin:  2.477e-07  t[s]:   9290.37
ElecMinimize: Converged (|Delta G|<1.000000e-07 for 2 iters).
Setting wave functions to eigenvectors of Hamiltonian
Converging empty states (this may take a while): |deigs|: 9.411e-04
Single-point solvation energy estimate, DeltaG = -0.018216499124378

Computing DFT-D3 correction:
# coordination-number C 3.301 3.322 3.335 3.333 3.313 3.290 3.325 3.588 3.329 3.314 3.301 3.328 3.303 3.301 3.323 3.608 3.267 3.301 3.320 3.335 3.329 3.303 3.302 3.328 3.335 3.320 3.301 3.268 3.585 3.323 3.301 3.303 3.325 3.301 3.313 3.329 3.606 3.327 3.289 3.313 3.332 3.335 3.323 3.301 2.996
# coordination-number N 3.178 3.179 3.177 3.179
# coordination-number Ti 7.481
# coordination-number O 1.998 1.034
# diagonal-C6 C 24.28 24.06 23.92 23.94 24.15 24.38 24.02 20.42 23.98 24.15 24.27 24.00 24.25 24.28 24.05 20.18 24.58 24.28 24.08 23.92 23.98 24.25 24.26 24.00 23.92 24.08 24.27 24.57 20.46 24.05 24.27 24.25 24.03 24.28 24.15 23.99 20.21 24.01 24.38 24.15 23.95 23.92 24.05 24.28 25.68
# diagonal-C6 N 15.60 15.60 15.60 15.60
# diagonal-C6 Ti 321.59
# diagonal-C6 O 10.41 12.78
EvdW_6 =   -0.039674
EvdW_8 =   -0.031871

# Ionic positions in cartesian coordinates:
ion C  -0.002700000000000   0.052169000000000  43.288712000000004 1
ion C  21.041816000000004   4.010776000000001  43.276557000000004 1
ion C  18.698146999999999   8.014610000000001  43.194586000000008 1
ion C  -7.043596000000002  12.018356000000002  43.181479000000010 1
ion C  -9.370433000000000  16.031041000000002  43.249824000000004 1
ion C   4.683653000000000   0.158395000000000   0.071027000000000 1
ion C   2.286451000000000   4.169569000000001   0.146596000000000 1
ion C  -0.120053000000000   7.993199000000001   0.088286000000000 1
ion C  -2.433507000000001  12.005096000000002  43.247272000000009 1
ion C  -4.723526000000001  16.034628000000005  43.253934000000008 1
ion C   9.371490000000000   0.057192000000000  43.284732000000005 1
ion C   7.077166000000000   4.168918000000000   0.124838000000000 1
ion C  -0.030772000000001  15.939415000000002   0.046025000000000 1
ion C   2.343947999999999  19.899229000000002  43.290615000000010 1
ion C  11.757002000000004   4.002410000000001  43.258605000000003 1
ion C   9.476383000000000   7.998392000000001   0.046457000000000 1
ion C   4.671450000000000  15.798342000000002   0.129596000000000 1
ion C   6.993819999999999  19.903318000000002  43.289750000000005 1
ion C  16.399343999999999   3.984947000000001  43.230402000000005 1
ion C  14.094574000000001   8.010417000000002  43.182864000000009 1
ion C  11.782930000000000  12.015651999999999  43.226942000000008 1
ion C   9.373870999999999  15.948271999999999   0.032702000000000 1
ion C  -0.017557000000000   2.734072000000000   0.054892000000000 1
ion C  -2.426145000000000   6.663420000000000  43.258692000000003 1
ion C  -4.741538000000000  10.667614000000002  43.190044000000007 1
ion C  -7.046004000000002  14.693963000000002  43.223784000000009 1
ion C  -9.373259000000001  18.717561000000003  43.292994000000007 1
ion C   4.681762000000000   2.878952000000000   0.140713000000000 1
ion C  -0.125024000000000  10.680496000000002   0.079894000000000 1
ion C  -2.404059999999999  14.675821000000001  43.265310000000007 1
ion C  -4.724090000000000  18.720732000000005  43.291870000000010 1
ion C   9.382695000000000   2.738197000000000   0.037936000000000 1
ion C   2.275076999999998  14.505162000000004   0.132840000000000 1
ion C  -0.018301000000001  18.620620000000002  43.285641000000005 1
ion C  14.076433000000002   2.643862000000000  43.253977000000006 1
ion C  11.785277000000001   6.673014000000002  43.233128000000008 1
ion C   9.476638000000001  10.686731000000002   0.041829000000000 1
ion C   7.070028000000001  14.511856000000003   0.114240000000000 1
ion C   4.669817000000000  18.519139000000003   0.064668000000000 1
ion C  18.724523000000001   2.647910000000000  43.259471000000005 1
ion C  16.397406000000004   6.659916000000002  43.187535000000004 1
ion C  14.092874000000002  10.681916000000003  43.179966000000007 1
ion C  11.748618000000000  14.686707000000000  43.251771000000005 1
ion C   9.358428999999999  18.629416000000003  43.282613000000012 1
ion C   4.755700999999999   8.434086000000002   5.457476000000001 1
ion N   2.156148999999998  11.913155000000001   0.217709000000000 1
ion N   7.193935000000000  11.919417000000003   0.178173000000000 1
ion N   2.169653000000001   6.766543000000000   0.241500000000000 1
ion N   7.191229000000000   6.763894000000001   0.197379000000000 1
ion Ti   4.702579000000001   9.338856000000002   1.670905000000000 1
ion O   4.681539000000000  10.918070000000002   5.093863000000001 1
ion O   4.801844000000000   7.370501000000002   7.549135000000001 1

# Forces in Cartesian coordinates:
force C   0.000097978057378  -0.000038541910413   0.000004436285312 1
force C   0.000084309265098  -0.000045870039142  -0.000023197449600 1
force C   0.000034451078981  -0.000050792347672   0.000047589466606 1
force C   0.000001681326457   0.000057412403400   0.000033328267868 1
force C   0.000012684000241   0.000090569211014  -0.000009600796469 1
force C  -0.000000582152095  -0.000119538820258  -0.000051598883150 1
force C   0.000105790342714  -0.000003171129720   0.000009544007523 1
force C   0.000098723654624   0.000090387510913  -0.000072237226330 1
force C   0.000114743261217   0.000043268346686  -0.000029403636377 1
force C  -0.000046999429679   0.000038599876108   0.000014348607650 1
force C  -0.000096478972646  -0.000056575454176  -0.000013611574822 1
force C  -0.000028275603354  -0.000019131767234  -0.000032223216345 1
force C   0.000105247063830  -0.000046113944742   0.000018833322302 1
force C  -0.000031086775126  -0.000029568118707   0.000022339947614 1
force C  -0.000055353798136  -0.000001779314267  -0.000026128733911 1
force C  -0.000050193214351   0.000083725676106   0.000011820206186 1
force C   0.000068992920857  -0.000077653746884   0.000000315746919 1
force C   0.000046836877703  -0.000039388527990   0.000105578277517 1
force C   0.000031968336843  -0.000023726778881  -0.000029671533947 1
force C  -0.000055850780230   0.000028776136142  -0.000053030361062 1
force C  -0.000065209638604   0.000118392546647  -0.000056025024775 1
force C   0.000034706896101  -0.000045271186255   0.000020261546502 1
force C  -0.000007068780662   0.000106511792145   0.000008513074162 1
force C   0.000012138592455   0.000078193331614  -0.000060179470425 1
force C   0.000038903536822  -0.000050257446807   0.000087673020292 1
force C   0.000080999792304  -0.000169434654564   0.000007153807015 1
force C  -0.000031642215461  -0.000021679599906  -0.000049307397057 1
force C   0.000063962024410   0.000121220732327   0.000000963463355 1
force C   0.000012349119534  -0.000022766554385  -0.000055753682806 1
force C   0.000017863454597  -0.000048937778611  -0.000008044336562 1
force C   0.000050540333831  -0.000028703077031  -0.000017077357644 1
force C   0.000124840159760   0.000093661069748   0.000001710291378 1
force C   0.000069565598020  -0.000017605203227   0.000031058709757 1
force C   0.000096803863940   0.000022808938493   0.000008279827681 1
force C   0.000054942869980   0.000041086260007  -0.000010821319469 1
force C   0.000097608192687   0.000006695315584  -0.000035206210216 1
force C  -0.000004877930450   0.000012084750844   0.000006076219187 1
force C  -0.000018856457981   0.000012616509463  -0.000034455234089 1
force C   0.000002220596988   0.000169244262941   0.000036474410003 1
force C  -0.000037101189440   0.000113160431222   0.000044832333292 1
force C   0.000080284106036   0.000039192262061  -0.000040592746435 1
force C   0.000103827623428  -0.000106874417791  -0.000025617842547 1
force C   0.000034992783112  -0.000048671824207  -0.000023722724856 1
force C  -0.000114437788510   0.000084516882465   0.000061930697044 1
force C   0.000031685659819  -0.000066604299652   0.000340347225669 1
force N   0.000011558567589   0.000112277090451   0.000024744960518 1
force N   0.000090604681847   0.000040444055539  -0.000036202810298 1
force N  -0.000143226987588  -0.000113060949916  -0.000005621048607 1
force N   0.000203309129154  -0.000050803679631  -0.000078053536980 1
force Ti  -0.000280851424954   0.000060185007412   0.000122772244699 1
force O  -0.000031811331028  -0.000073469274399   0.000048077521201 1
force O   0.000020713232487   0.000280373695610  -0.000057345321329 1

# Energy components:
   A_diel =       -0.0532472527641561
   Eewald =     1656.7614856569884978
       EH =     1970.1079828255101347
     Eloc =    -4158.5589505480011212
      Enl =       52.5384478730930695
     EvdW =       -0.0715445521634109
      Exc =     -108.9160974012975629
 Exc_core =        3.3095251957516241
       KE =      197.2981173376152810
  MuShift =       -0.0047872620137813
-------------------------------------
     Etot =     -387.5890681272811662
       TS =        0.0000434958311491
-------------------------------------
        F =     -387.5891116231123306
      muN =      -32.6553872619183281
-------------------------------------
        G =     -354.9337243611939812


Dumping 'jdft.fillings' ... done
Dumping 'jdft.wfns' ... done
Dumping 'jdft.fluidState' ... done
Dumping 'jdft.ionpos' ... done
Dumping 'jdft.lattice' ... done
Dumping 'jdft.eigenvals' ... done
Dumping 'jdft.eigStats' ... 
	eMin: -2.281312 at state 0 ( [ +0.000000 +0.000000 +0.000000 ] spin 1 )
	HOMO: -0.149412 at state 13 ( [ +0.333333 +0.333333 +0.000000 ] spin -1 )
	mu  : -0.145500
	LUMO: -0.134467 at state 2 ( [ +0.000000 -0.333333 +0.000000 ] spin 1 )
	eMax: +0.018422 at state 0 ( [ +0.000000 +0.000000 +0.000000 ] spin 1 )
	HOMO-LUMO gap: +0.014945
	Optical gap  : +0.017273 at state 4 ( [ +0.333333 +0.333333 +0.000000 ] spin 1 )
Dumping 'jdft.Ecomponents' ... done
IonicMinimize: Iter:   0  G: -354.933724361193981  |grad|_K:  7.478e-05  t[s]:   9801.72
IonicMinimize: Converged (|grad|_K<1.000000e-04).

#--- Lowdin population analysis ---
# oxidation-state C +0.043 +0.052 +0.043 +0.049 +0.041 +0.046 +0.174 +0.126 +0.033 +0.041 +0.043 +0.174 +0.029 +0.047 +0.052 +0.124 -0.002 +0.047 +0.039 +0.043 +0.033 +0.029 +0.029 +0.033 +0.043 +0.039 +0.047 +0.000 +0.126 +0.052 +0.047 +0.029 +0.173 +0.043 +0.041 +0.033 +0.124 +0.173 +0.045 +0.041 +0.050 +0.043 +0.052 +0.043 +0.219
# magnetic-moments C +0.000 +0.000 -0.000 +0.000 +0.000 +0.000 +0.000 +0.000 -0.000 +0.000 -0.000 +0.000 -0.000 -0.000 +0.000 +0.000 -0.000 -0.000 -0.000 -0.000 +0.000 -0.000 -0.000 -0.000 -0.000 -0.000 -0.000 -0.000 -0.000 +0.000 -0.000 -0.000 +0.000 +0.000 +0.000 -0.000 -0.000 +0.000 +0.000 +0.000 +0.000 -0.000 +0.000 +0.000 -0.000
# oxidation-state N -0.312 -0.313 -0.311 -0.310
# magnetic-moments N -0.000 -0.000 -0.000 -0.000
# oxidation-state Ti +1.445
# magnetic-moments Ti +0.000
# oxidation-state O -0.500 -0.548
# magnetic-moments O -0.000 -0.000


Dumping 'jdft.n_up' ... done
Dumping 'jdft.n_dn' ... done
Dumping 'jdft.tau_up' ... done
Dumping 'jdft.tau_dn' ... done
Dumping 'jdft.eigenvals' ... done
Dumping 'jdft.eigStats' ... 
	eMin: -2.281312 at state 0 ( [ +0.000000 +0.000000 +0.000000 ] spin 1 )
	HOMO: -0.149412 at state 13 ( [ +0.333333 +0.333333 +0.000000 ] spin -1 )
	mu  : -0.145500
	LUMO: -0.134467 at state 2 ( [ +0.000000 -0.333333 +0.000000 ] spin 1 )
	eMax: +0.018422 at state 0 ( [ +0.000000 +0.000000 +0.000000 ] spin 1 )
	HOMO-LUMO gap: +0.014945
	Optical gap  : +0.017273 at state 4 ( [ +0.333333 +0.333333 +0.000000 ] spin 1 )
Dumping 'jdft.kPts' ... done
Dumping 'jdft.dosUp' ... done.
Dumping 'jdft.dosDn' ... done.
End date and time: Tue Mar 14 16:17:31 2023  (Duration: 0-2:44:33.61)
Done!

PROFILER:             augmentDensityGrid     0.953384 +/-     1.194573 s,  608 calls,    579.657420 s total
PROFILER:         augmentDensityGridGrad     0.501550 +/-     0.513264 s,  316 calls,    158.489940 s total
PROFILER:        augmentDensitySpherical     0.000304 +/-     0.000372 s,  608 calls,      0.184721 s total
PROFILER:    augmentDensitySphericalGrad     0.000262 +/-     0.000336 s,  464 calls,      0.121695 s total
PROFILER:                 augmentOverlap     1.511987 +/-     2.044398 s, 1000 calls,   1511.986639 s total
PROFILER:        ColumnBundle::randomize     0.005547 +/-     0.000000 s,    1 calls,      0.005547 s total
PROFILER:                     diagouterI    16.879818 +/-     3.993175 s,  155 calls,   2616.371846 s total
PROFILER:              EdensityAndVscloc     2.780054 +/-     4.284470 s,  153 calls,    425.348201 s total
PROFILER:                     EnlAndGrad     0.000883 +/-     0.001402 s,  508 calls,      0.448567 s total
PROFILER:            ExCorrCommunication     0.059015 +/-     0.088624 s,  931 calls,     54.943065 s total
PROFILER:               ExCorrFunctional     0.023289 +/-     0.003251 s,  157 calls,      3.656409 s total
PROFILER:                    ExCorrTotal     0.616037 +/-     0.209238 s,  157 calls,     96.717813 s total
PROFILER:                   Idag_DiagV_I    25.220205 +/-    14.684092 s,  115 calls,   2900.323528 s total
PROFILER:                    initWeights     1.867590 +/-     0.000000 s,    1 calls,      1.867590 s total
PROFILER:                    inv(matrix)     0.001515 +/-     0.000037 s,   86 calls,      0.130268 s total
PROFILER:            matrix::diagonalize     0.008641 +/-     0.004498 s,  261 calls,      2.255321 s total
PROFILER:                    matrix::set     0.000002 +/-     0.000003 s, 12990 calls,      0.022238 s total
PROFILER:            orthoMatrix(matrix)     0.001348 +/-     0.004202 s,  123 calls,      0.165754 s total
PROFILER:     RadialFunctionR::transform     0.003059 +/-     0.015773 s,  141 calls,      0.431255 s total
PROFILER:                    reduceKmesh     0.000000 +/-     0.000000 s,    1 calls,      0.000000 s total
PROFILER:   VanDerWaalsD3::energyAndGrad     0.047127 +/-     0.024525 s,    3 calls,      0.141382 s total
PROFILER:               WavefunctionDrag    14.039553 +/-     0.000000 s,    1 calls,     14.039553 s total
PROFILER:                            Y*M     0.695356 +/-     0.856818 s, 2016 calls,   1401.838363 s total
PROFILER:                          Y1^Y2     0.662405 +/-     0.837840 s, 1374 calls,    910.145053 s total

MEMUSAGE:                   ColumnBundle     1.333771 GB
MEMUSAGE:        complexScalarFieldTilde     0.024719 GB
MEMUSAGE:                    IndexArrays     0.023178 GB
MEMUSAGE:                         matrix     0.020674 GB
MEMUSAGE:                           misc     0.050872 GB
MEMUSAGE:                    ScalarField     0.358429 GB
MEMUSAGE:               ScalarFieldTilde     0.262436 GB
MEMUSAGE:                          Total     1.613345 GB
