
*************** JDFTx 1.7.0 (git hash 5f12716a) ***************

Start date and time: Wed Nov  9 18:58:38 2022
Executable /home/nisi6161/jdftx_alpine/build/jdftx with command-line: -i in
Running on hosts (process indices):  c3cpu-c11-u7-2.rc.int.colorado.edu (0-17)
Divided in process groups (process indices):  0 (0)  1 (1)  2 (2)  3 (3)  4 (4)  5 (5)  6 (6)  7 (7)  8 (8)  9 (9)  10 (10)  11 (11)  12 (12)  13 (13)  14 (14)  15 (15)  16 (16)  17 (17)
Resource initialization completed at t[s]:      0.03
Run totals: 18 processes, 48 threads, 0 GPUs


Input parsed successfully to the following command list (including defaults):

basis kpoint-dependent
converge-empty-states yes
coords-type Cartesian
core-overlap-check none
coulomb-interaction Periodic
davidson-band-ratio 1.1
density-of-states Etol 1.000000e-06 Esigma 1.000000e-03 \
		Complete \
	Total \
	OrthoOrbital C 1   s \
	OrthoOrbital C 1   p \
	OrthoOrbital C 1   px \
	OrthoOrbital C 1   py \
	OrthoOrbital C 1   pz \
	OrthoOrbital C 2   s \
	OrthoOrbital C 2   p \
	OrthoOrbital C 2   px \
	OrthoOrbital C 2   py \
	OrthoOrbital C 2   pz \
	OrthoOrbital C 3   s \
	OrthoOrbital C 3   p \
	OrthoOrbital C 3   px \
	OrthoOrbital C 3   py \
	OrthoOrbital C 3   pz \
	OrthoOrbital C 4   s \
	OrthoOrbital C 4   p \
	OrthoOrbital C 4   px \
	OrthoOrbital C 4   py \
	OrthoOrbital C 4   pz \
	OrthoOrbital C 5   s \
	OrthoOrbital C 5   p \
	OrthoOrbital C 5   px \
	OrthoOrbital C 5   py \
	OrthoOrbital C 5   pz \
	OrthoOrbital C 6   s \
	OrthoOrbital C 6   p \
	OrthoOrbital C 6   px \
	OrthoOrbital C 6   py \
	OrthoOrbital C 6   pz \
	OrthoOrbital C 7   s \
	OrthoOrbital C 7   p \
	OrthoOrbital C 7   px \
	OrthoOrbital C 7   py \
	OrthoOrbital C 7   pz \
	OrthoOrbital C 8   s \
	OrthoOrbital C 8   p \
	OrthoOrbital C 8   px \
	OrthoOrbital C 8   py \
	OrthoOrbital C 8   pz \
	OrthoOrbital C 9   s \
	OrthoOrbital C 9   p \
	OrthoOrbital C 9   px \
	OrthoOrbital C 9   py \
	OrthoOrbital C 9   pz \
	OrthoOrbital C 10   s \
	OrthoOrbital C 10   p \
	OrthoOrbital C 10   px \
	OrthoOrbital C 10   py \
	OrthoOrbital C 10   pz \
	OrthoOrbital C 11   s \
	OrthoOrbital C 11   p \
	OrthoOrbital C 11   px \
	OrthoOrbital C 11   py \
	OrthoOrbital C 11   pz \
	OrthoOrbital C 12   s \
	OrthoOrbital C 12   p \
	OrthoOrbital C 12   px \
	OrthoOrbital C 12   py \
	OrthoOrbital C 12   pz \
	OrthoOrbital C 13   s \
	OrthoOrbital C 13   p \
	OrthoOrbital C 13   px \
	OrthoOrbital C 13   py \
	OrthoOrbital C 13   pz \
	OrthoOrbital C 14   s \
	OrthoOrbital C 14   p \
	OrthoOrbital C 14   px \
	OrthoOrbital C 14   py \
	OrthoOrbital C 14   pz \
	OrthoOrbital C 15   s \
	OrthoOrbital C 15   p \
	OrthoOrbital C 15   px \
	OrthoOrbital C 15   py \
	OrthoOrbital C 15   pz \
	OrthoOrbital C 16   s \
	OrthoOrbital C 16   p \
	OrthoOrbital C 16   px \
	OrthoOrbital C 16   py \
	OrthoOrbital C 16   pz \
	OrthoOrbital C 17   s \
	OrthoOrbital C 17   p \
	OrthoOrbital C 17   px \
	OrthoOrbital C 17   py \
	OrthoOrbital C 17   pz \
	OrthoOrbital C 18   s \
	OrthoOrbital C 18   p \
	OrthoOrbital C 18   px \
	OrthoOrbital C 18   py \
	OrthoOrbital C 18   pz \
	OrthoOrbital C 19   s \
	OrthoOrbital C 19   p \
	OrthoOrbital C 19   px \
	OrthoOrbital C 19   py \
	OrthoOrbital C 19   pz \
	OrthoOrbital C 20   s \
	OrthoOrbital C 20   p \
	OrthoOrbital C 20   px \
	OrthoOrbital C 20   py \
	OrthoOrbital C 20   pz \
	OrthoOrbital C 21   s \
	OrthoOrbital C 21   p \
	OrthoOrbital C 21   px \
	OrthoOrbital C 21   py \
	OrthoOrbital C 21   pz \
	OrthoOrbital C 22   s \
	OrthoOrbital C 22   p \
	OrthoOrbital C 22   px \
	OrthoOrbital C 22   py \
	OrthoOrbital C 22   pz \
	OrthoOrbital C 23   s \
	OrthoOrbital C 23   p \
	OrthoOrbital C 23   px \
	OrthoOrbital C 23   py \
	OrthoOrbital C 23   pz \
	OrthoOrbital C 24   s \
	OrthoOrbital C 24   p \
	OrthoOrbital C 24   px \
	OrthoOrbital C 24   py \
	OrthoOrbital C 24   pz \
	OrthoOrbital C 25   s \
	OrthoOrbital C 25   p \
	OrthoOrbital C 25   px \
	OrthoOrbital C 25   py \
	OrthoOrbital C 25   pz \
	OrthoOrbital C 26   s \
	OrthoOrbital C 26   p \
	OrthoOrbital C 26   px \
	OrthoOrbital C 26   py \
	OrthoOrbital C 26   pz \
	OrthoOrbital C 27   s \
	OrthoOrbital C 27   p \
	OrthoOrbital C 27   px \
	OrthoOrbital C 27   py \
	OrthoOrbital C 27   pz \
	OrthoOrbital C 28   s \
	OrthoOrbital C 28   p \
	OrthoOrbital C 28   px \
	OrthoOrbital C 28   py \
	OrthoOrbital C 28   pz \
	OrthoOrbital C 29   s \
	OrthoOrbital C 29   p \
	OrthoOrbital C 29   px \
	OrthoOrbital C 29   py \
	OrthoOrbital C 29   pz \
	OrthoOrbital C 30   s \
	OrthoOrbital C 30   p \
	OrthoOrbital C 30   px \
	OrthoOrbital C 30   py \
	OrthoOrbital C 30   pz \
	OrthoOrbital C 31   s \
	OrthoOrbital C 31   p \
	OrthoOrbital C 31   px \
	OrthoOrbital C 31   py \
	OrthoOrbital C 31   pz \
	OrthoOrbital C 32   s \
	OrthoOrbital C 32   p \
	OrthoOrbital C 32   px \
	OrthoOrbital C 32   py \
	OrthoOrbital C 32   pz \
	OrthoOrbital C 33   s \
	OrthoOrbital C 33   p \
	OrthoOrbital C 33   px \
	OrthoOrbital C 33   py \
	OrthoOrbital C 33   pz \
	OrthoOrbital C 34   s \
	OrthoOrbital C 34   p \
	OrthoOrbital C 34   px \
	OrthoOrbital C 34   py \
	OrthoOrbital C 34   pz \
	OrthoOrbital C 35   s \
	OrthoOrbital C 35   p \
	OrthoOrbital C 35   px \
	OrthoOrbital C 35   py \
	OrthoOrbital C 35   pz \
	OrthoOrbital C 36   s \
	OrthoOrbital C 36   p \
	OrthoOrbital C 36   px \
	OrthoOrbital C 36   py \
	OrthoOrbital C 36   pz \
	OrthoOrbital C 37   s \
	OrthoOrbital C 37   p \
	OrthoOrbital C 37   px \
	OrthoOrbital C 37   py \
	OrthoOrbital C 37   pz \
	OrthoOrbital C 38   s \
	OrthoOrbital C 38   p \
	OrthoOrbital C 38   px \
	OrthoOrbital C 38   py \
	OrthoOrbital C 38   pz \
	OrthoOrbital C 39   s \
	OrthoOrbital C 39   p \
	OrthoOrbital C 39   px \
	OrthoOrbital C 39   py \
	OrthoOrbital C 39   pz \
	OrthoOrbital C 40   s \
	OrthoOrbital C 40   p \
	OrthoOrbital C 40   px \
	OrthoOrbital C 40   py \
	OrthoOrbital C 40   pz \
	OrthoOrbital C 41   s \
	OrthoOrbital C 41   p \
	OrthoOrbital C 41   px \
	OrthoOrbital C 41   py \
	OrthoOrbital C 41   pz \
	OrthoOrbital C 42   s \
	OrthoOrbital C 42   p \
	OrthoOrbital C 42   px \
	OrthoOrbital C 42   py \
	OrthoOrbital C 42   pz \
	OrthoOrbital C 43   s \
	OrthoOrbital C 43   p \
	OrthoOrbital C 43   px \
	OrthoOrbital C 43   py \
	OrthoOrbital C 43   pz \
	OrthoOrbital C 44   s \
	OrthoOrbital C 44   p \
	OrthoOrbital C 44   px \
	OrthoOrbital C 44   py \
	OrthoOrbital C 44   pz \
	OrthoOrbital C 45   s \
	OrthoOrbital C 45   p \
	OrthoOrbital C 45   px \
	OrthoOrbital C 45   py \
	OrthoOrbital C 45   pz \
	OrthoOrbital N 1   s \
	OrthoOrbital N 1   p \
	OrthoOrbital N 1   px \
	OrthoOrbital N 1   py \
	OrthoOrbital N 1   pz \
	OrthoOrbital N 2   s \
	OrthoOrbital N 2   p \
	OrthoOrbital N 2   px \
	OrthoOrbital N 2   py \
	OrthoOrbital N 2   pz \
	OrthoOrbital N 3   s \
	OrthoOrbital N 3   p \
	OrthoOrbital N 3   px \
	OrthoOrbital N 3   py \
	OrthoOrbital N 3   pz \
	OrthoOrbital N 4   s \
	OrthoOrbital N 4   p \
	OrthoOrbital N 4   px \
	OrthoOrbital N 4   py \
	OrthoOrbital N 4   pz \
	OrthoOrbital Ti 1   s \
	OrthoOrbital Ti 1   p \
	OrthoOrbital Ti 1   px \
	OrthoOrbital Ti 1   py \
	OrthoOrbital Ti 1   pz \
	OrthoOrbital Ti 1   d \
	OrthoOrbital Ti 1   dxy \
	OrthoOrbital Ti 1   dyz \
	OrthoOrbital Ti 1   dz2 \
	OrthoOrbital Ti 1   dxz \
	OrthoOrbital Ti 1   dx2-y2 \
	OrthoOrbital O 1   s \
	OrthoOrbital O 1   p \
	OrthoOrbital O 1   px \
	OrthoOrbital O 1   py \
	OrthoOrbital O 1   pz \
	OrthoOrbital O 2   s \
	OrthoOrbital O 2   p \
	OrthoOrbital O 2   px \
	OrthoOrbital O 2   py \
	OrthoOrbital O 2   pz
dump End ElecDensity KEdensity BandEigs EigStats RhoAtom DOS Kpoints
dump Ionic State IonicPositions Lattice EigStats Ecomponents
dump 
dump 
dump 
dump 
dump 
dump 
dump 
dump 
dump-name jdft.$VAR
elec-cutoff 20
elec-eigen-algo Davidson
elec-ex-corr gga-PBE
elec-initial-magnetization 0.000000 no
elec-n-bands 135
elec-smearing Fermi 0.001
electronic-minimize  \
	dirUpdateScheme      FletcherReeves \
	linminMethod         DirUpdateRecommended \
	nIterations          100 \
	history              15 \
	knormThreshold       0 \
	energyDiffThreshold  1e-07 \
	nEnergyDiff          2 \
	alphaTstart          1 \
	alphaTmin            1e-10 \
	updateTestStepSize   yes \
	alphaTreduceFactor   0.1 \
	alphaTincreaseFactor 3 \
	nAlphaAdjustMax      3 \
	wolfeEnergy          0.0001 \
	wolfeGradient        0.9 \
	fdTest               no
exchange-regularization WignerSeitzTruncated
fluid LinearPCM 298.000000 1.013250
fluid-anion F- 0.5 MeanFieldLJ \
	epsBulk 1 \
	pMol 0 \
	epsInf 1 \
	Pvap 0 \
	sigmaBulk 0 \
	Rvdw 2.24877 \
	Res 0 \
	tauNuc 343133
fluid-cation Na+ 0.5 MeanFieldLJ \
	epsBulk 1 \
	pMol 0 \
	epsInf 1 \
	Pvap 0 \
	sigmaBulk 0 \
	Rvdw 2.19208 \
	Res 0 \
	tauNuc 343133
fluid-ex-corr lda-TF lda-PZ
fluid-gummel-loop 10 1.000000e-05
fluid-minimize  \
	dirUpdateScheme      PolakRibiere \
	linminMethod         DirUpdateRecommended \
	nIterations          400 \
	history              15 \
	knormThreshold       1e-11 \
	energyDiffThreshold  0 \
	nEnergyDiff          2 \
	alphaTstart          1 \
	alphaTmin            1e-10 \
	updateTestStepSize   yes \
	alphaTreduceFactor   0.1 \
	alphaTincreaseFactor 3 \
	nAlphaAdjustMax      6 \
	wolfeEnergy          0.0001 \
	wolfeGradient        0.9 \
	fdTest               no
fluid-solvent H2O 55.338 ScalarEOS \
	epsBulk 78.4 \
	pMol 0.92466 \
	epsInf 1.77 \
	Pvap 1.06736e-10 \
	sigmaBulk 4.62e-05 \
	Rvdw 2.61727 \
	Res 1.42 \
	tauNuc 343133 \
	poleEl 15 7 1
forces-output-coords Positions
ion C  -0.000085000000000   0.050037000000000   0.033480000000000 0
ion C  21.045229000000003   4.007008000000001   0.011074000000000 0
ion C  18.699764999999999   8.014412000000002  43.171877000000009 0
ion C  -7.039448000000000  12.018079000000002  43.157472000000006 0
ion C  -9.363709999999999  16.035036000000005  43.236675000000005 0
ion C   4.687596000000000   0.165999000000000   0.068907000000000 0
ion C   2.286263000000000   4.169928000000000   0.158102000000000 0
ion C  -0.121888000000001   7.987152000000003   0.089324000000000 0
ion C  -2.432546000000000  12.005177000000003  43.234209000000007 0
ion C  -4.722099000000000  16.038260999999999  43.237929000000008 0
ion C   9.376167000000001   0.055939000000000   0.029458000000000 0
ion C   7.084242000000000   4.171517000000000   0.146466000000000 0
ion C  -0.031357000000002  15.938656000000002   0.050307000000000 0
ion C   2.346927000000001  19.895680000000002   0.032139000000000 0
ion C  11.761188000000004   3.998962000000001   0.001990000000000 0
ion C   9.486066999999998   7.993292000000003   0.070465000000000 0
ion C   4.675683000000001  15.794973000000002   0.148845000000000 0
ion C   6.998006000000004  19.899790000000003   0.032529000000000 0
ion C  16.402838000000003   3.982156000000000  43.213878000000008 0
ion C  14.100586000000000   8.010522000000002  43.167421000000004 0
ion C  11.790406000000001  12.016137000000001  43.225644000000010 0
ion C   9.382824000000003  15.947081000000003   0.044121000000000 0
ion C  -0.018191000000000   2.735388000000000   0.056969000000000 0
ion C  -2.425126000000001   6.663999000000001  43.244677000000010 0
ion C  -4.739523000000001  10.667616000000002  43.166686000000006 0
ion C  -7.041998000000001  14.696999000000003  43.202459000000005 0
ion C  -9.369395000000003  18.722352000000004   0.030885000000000 0
ion C   4.685719000000000   2.884581000000000   0.154209000000000 0
ion C  -0.127010000000000  10.687896000000002   0.082403000000000 0
ion C  -2.400818000000000  14.680152000000001  43.256097000000004 0
ion C  -4.720390000000001  18.725483000000004   0.029068000000000 0
ion C   9.390708999999999   2.740877000000000   0.046933000000000 0
ion C   2.275766999999998  14.506540000000003   0.148845000000000 0
ion C  -0.016300000000001  18.623275000000003   0.030885000000000 0
ion C  14.082141999999999   2.641173000000001  43.244417000000006 0
ion C  11.791767999999998   6.674176000000001  43.233733000000008 0
ion C   9.486920000000005  10.695118000000001   0.065533000000000 0
ion C   7.077878999999999  14.511902000000003   0.139848000000000 0
ion C   4.673652999999998  18.513655000000007   0.068734000000000 0
ion C  18.725990000000003   2.645337000000000  43.247705000000011 0
ion C  16.401202000000001   6.660318000000001  43.166383000000010 0
ion C  14.099213000000002  10.682060000000000  43.162879000000004 0
ion C  11.753923000000000  14.691479000000001  43.250387000000011 0
ion C   9.363806000000004  18.631633999999998   0.030582000000000 0
ion C   4.697036000000001   8.424684000000001   5.457000000000001 1
ion N   2.145143000000001  11.915880000000001   0.232200000000000 0
ion N   7.213175000000000  11.921427000000003   0.214292000000000 0
ion N   2.158100000000000   6.764698000000002   0.252703000000000 0
ion N   7.208992000000000   6.765225000000002   0.231118000000000 0
ion Ti   4.692803999999999   9.341722000000003   1.687559000000000 0
ion O   4.667059999999999  10.912513000000002   5.078032000000001 1
ion O   4.698715000000001   7.351987000000001   7.532957000000001 1
ion-species /projects/musgravc/apps/jdftx-1.6.0/build/pseudopotentials/GBRV_v1.5/$ID_pbe_v1.uspp
ion-species /projects/musgravc/apps/jdftx-1.6.0/build/pseudopotentials/GBRV_v1.5/$ID_pbe_v1.2.uspp
ion-species /projects/musgravc/apps/jdftx-1.6.0/build/pseudopotentials/GBRV_v1.5/$ID_pbe_v1.4.uspp
ion-species /projects/musgravc/apps/jdftx-1.6.0/build/pseudopotentials/GBRV_v1.5/$ID_pbe_v1.5.uspp
ion-width Ecut
ionic-minimize  \
	dirUpdateScheme      L-BFGS \
	linminMethod         DirUpdateRecommended \
	nIterations          100 \
	history              15 \
	knormThreshold       0.0001 \
	energyDiffThreshold  1e-06 \
	nEnergyDiff          2 \
	alphaTstart          1 \
	alphaTmin            1e-10 \
	updateTestStepSize   yes \
	alphaTreduceFactor   0.1 \
	alphaTincreaseFactor 1 \
	nAlphaAdjustMax      1 \
	wolfeEnergy          0.0001 \
	wolfeGradient        0.9 \
	fdTest               no
kpoint   0.000000000000   0.000000000000   0.000000000000  1.00000000000000
kpoint-folding 3 3 1 
latt-move-scale 0 0 0
latt-scale 1 1 1 
lattice  \
	  23.436261999999999  -11.733459000000000    0.000000000000000  \
	   0.017994000000000   19.941849000000001    0.000000000000000  \
	   0.000000000000000    0.000000000000000   43.256312999999999 
lattice-minimize  \
	dirUpdateScheme      L-BFGS \
	linminMethod         DirUpdateRecommended \
	nIterations          0 \
	history              15 \
	knormThreshold       0 \
	energyDiffThreshold  1e-06 \
	nEnergyDiff          2 \
	alphaTstart          1 \
	alphaTmin            1e-10 \
	updateTestStepSize   yes \
	alphaTreduceFactor   0.1 \
	alphaTincreaseFactor 3 \
	nAlphaAdjustMax      3 \
	wolfeEnergy          0.0001 \
	wolfeGradient        0.9 \
	fdTest               no
lcao-params 30 1e-06 0.001
pcm-variant CANDLE
spintype z-spin
subspace-rotation-factor 1 yes
symmetries none
symmetry-threshold 0.0001
van-der-waals D3
vibrations \
	dr 0.01\
	centralDiff no\
	useConstraints yes\
	translationSym yes\
	rotationSym no\
	omegaMin 0.0002\
	T 298\
	omegaResolution 0.0001


Applied RMS atom displacement 0 bohrs to make symmetries exact.
Applied RMS atom displacement 0 bohrs to make symmetries exact.

---------- Initializing the Grid ----------
R = 
[      23.4363     -11.7335            0  ]
[     0.017994      19.9418            0  ]
[            0            0      43.2563  ]
unit cell volume = 20225.5
G =
[   0.267976   0.157673         -0  ]
[ -0.000241801   0.314933          0  ]
[          0         -0   0.145255  ]
Minimum fftbox size, Smin = [  96  96  176  ]
Chosen fftbox size, S = [  96  96  180  ]

---------- Exchange Correlation functional ----------
Initalized PBE GGA exchange.
Initalized PBE GGA correlation.

---------- Setting up pseudopotentials ----------
Width of ionic core gaussian charges (only for fluid interactions / plotting) set to 0.397384

Reading pseudopotential file '/projects/musgravc/apps/jdftx-1.6.0/build/pseudopotentials/GBRV_v1.5/c_pbe_v1.2.uspp':
  Title: C.  Created by USPP 7.3.6 on 3-2-2014
  Reference state energy: -5.406344.  4 valence electrons in orbitals:
    |200>  occupation: 2  eigenvalue: -0.504890
    |210>  occupation: 2  eigenvalue: -0.194356
  lMax: 1  lLocal: 2  QijEcut: 5
  4 projectors sampled on a log grid with 503 points:
    l: 0  eig: -0.504890  rCut: 1.3
    l: 0  eig: 0.000000  rCut: 1.3
    l: 1  eig: -0.194357  rCut: 1.3
    l: 1  eig: 0.000000  rCut: 1.3
  Partial core density with radius 1.1
  Transforming core density to a uniform radial grid of dG=0.02 with 1464 points.
  Transforming local potential to a uniform radial grid of dG=0.02 with 1464 points.
  Transforming nonlocal projectors to a uniform radial grid of dG=0.02 with 432 points.
  Transforming density augmentations to a uniform radial grid of dG=0.02 with 1464 points.
  Transforming atomic orbitals to a uniform radial grid of dG=0.02 with 432 points.
  Core radius for overlap checks: 1.30 bohrs.

Reading pseudopotential file '/projects/musgravc/apps/jdftx-1.6.0/build/pseudopotentials/GBRV_v1.5/n_pbe_v1.2.uspp':
  Title: N.  Created by USPP 7.3.6 on 3-2-2014
  Reference state energy: -9.763716.  5 valence electrons in orbitals:
    |200>  occupation: 2  eigenvalue: -0.681964
    |210>  occupation: 3  eigenvalue: -0.260726
  lMax: 1  lLocal: 2  QijEcut: 6
  4 projectors sampled on a log grid with 491 points:
    l: 0  eig: -0.681964  rCut: 1.15
    l: 0  eig: 0.000000  rCut: 1.15
    l: 1  eig: -0.260729  rCut: 1.2
    l: 1  eig: 0.500000  rCut: 1.2
  Partial core density with radius 0.8
  Transforming core density to a uniform radial grid of dG=0.02 with 1464 points.
  Transforming local potential to a uniform radial grid of dG=0.02 with 1464 points.
  Transforming nonlocal projectors to a uniform radial grid of dG=0.02 with 432 points.
  Transforming density augmentations to a uniform radial grid of dG=0.02 with 1464 points.
  Transforming atomic orbitals to a uniform radial grid of dG=0.02 with 432 points.
  Core radius for overlap checks: 1.20 bohrs.

Reading pseudopotential file '/projects/musgravc/apps/jdftx-1.6.0/build/pseudopotentials/GBRV_v1.5/ti_pbe_v1.4.uspp':
  Title: Ti.  Created by USPP 7.3.6 on 31-3-15
  Reference state energy: -59.020943.  12 valence electrons in orbitals:
    |300>  occupation: 2  eigenvalue: -2.777623
    |310>  occupation: 6  eigenvalue: -1.894596
    |400>  occupation: 2  eigenvalue: -0.438610
    |320>  occupation: 1  eigenvalue: -0.583119
  lMax: 2  lLocal: 3  QijEcut: 6
  6 projectors sampled on a log grid with 597 points:
    l: 0  eig: -2.777624  rCut: 1.8
    l: 0  eig: -0.438611  rCut: 1.8
    l: 1  eig: -1.894596  rCut: 1.8
    l: 1  eig: 0.500000  rCut: 1.8
    l: 2  eig: -0.583118  rCut: 1.8
    l: 2  eig: 0.150000  rCut: 1.8
  Partial core density with radius 0.8
  Transforming core density to a uniform radial grid of dG=0.02 with 1464 points.
  Transforming local potential to a uniform radial grid of dG=0.02 with 1464 points.
  Transforming nonlocal projectors to a uniform radial grid of dG=0.02 with 432 points.
  Transforming density augmentations to a uniform radial grid of dG=0.02 with 1464 points.
  Transforming atomic orbitals to a uniform radial grid of dG=0.02 with 432 points.
  Core radius for overlap checks: 1.80 bohrs.

Reading pseudopotential file '/projects/musgravc/apps/jdftx-1.6.0/build/pseudopotentials/GBRV_v1.5/o_pbe_v1.2.uspp':
  Title: O.  Created by USPP 7.3.6 on 3-2-2014
  Reference state energy: -15.894388.  6 valence electrons in orbitals:
    |200>  occupation: 2  eigenvalue: -0.878823
    |210>  occupation: 4  eigenvalue: -0.332131
  lMax: 2  lLocal: 2  QijEcut: 6
  5 projectors sampled on a log grid with 511 points:
    l: 0  eig: -0.878823  rCut: 1.25
    l: 0  eig: 0.000000  rCut: 1.25
    l: 1  eig: -0.332132  rCut: 1.25
    l: 1  eig: 0.000000  rCut: 1.25
    l: 2  eig: 1.000000  rCut: 1.25
  Partial core density with radius 0.7
  Transforming core density to a uniform radial grid of dG=0.02 with 1464 points.
  Transforming local potential to a uniform radial grid of dG=0.02 with 1464 points.
  Transforming nonlocal projectors to a uniform radial grid of dG=0.02 with 432 points.
  Transforming density augmentations to a uniform radial grid of dG=0.02 with 1464 points.
  Transforming atomic orbitals to a uniform radial grid of dG=0.02 with 432 points.
  Core radius for overlap checks: 1.25 bohrs.

Initialized 4 species with 52 total atoms.

Folded 1 k-points by 3x3x1 to 9 k-points.

---------- Setting up k-points, bands, fillings ----------
No reducable k-points. 
Computing the number of bands and number of electrons
Calculating initial fillings.
nElectrons: 224.000000   nBands: 135   nStates: 18

----- Setting up reduced wavefunction bases (one per k-point) -----
average nbasis = 86412.556 , ideal nbasis = 86404.907

----- Initializing Supercell corresponding to k-point mesh -----
Lattice vector linear combinations in supercell:
[   3   0   0  ]
[   0   3   0  ]
[   0   0   1  ]
Supercell lattice vectors:
[  70.3088  -35.2004  0  ]
[  0.053982  59.8255  0  ]
[  0  0  43.2563  ]

Initializing DFT-D3 calculator:
	Parameters set for gga-PBE functional
	s6:  1.000  s_r6:  1.217
	s8:  0.722  s_r8:  1.000
	Per-atom parameters loaded for:
	 C:  sqrtQ[a0]:  3.105  Rcov[a0]:  1.417  CN: [ 0.00 0.99 2.00 3.00 3.98 ]
	 N:  sqrtQ[a0]:  2.712  Rcov[a0]:  1.342  CN: [ 0.00 0.99 2.01 2.99 ]
	Ti:  sqrtQ[a0]:  6.288  Rcov[a0]:  2.305  CN: [ 0.00 1.83 3.87 ]
	 O:  sqrtQ[a0]:  2.594  Rcov[a0]:  1.191  CN: [ 0.00 0.99 1.99 ]

Initializing DFT-D2 calculator for fluid / solvation:
	 C:  C6:   30.35 Eh-a0^6  R0: 2.744 a0
	 N:  C6:   21.33 Eh-a0^6  R0: 2.640 a0
	Ti:  C6:  187.33 Eh-a0^6  R0: 2.952 a0
	 O:  C6:   12.14 Eh-a0^6  R0: 2.536 a0

---------- Setting up ewald sum ----------
Optimum gaussian width for ewald sums = 5.626124 bohr.
Real space sum over 567 unit cells with max indices [  4  4  3  ]
Reciprocal space sum over 7803 terms with max indices [  8  8  13  ]

Computing DFT-D3 correction:
# coordination-number C 3.302 3.323 3.335 3.334 3.314 3.290 3.326 3.589 3.330 3.314 3.302 3.327 3.304 3.301 3.324 3.598 3.265 3.301 3.319 3.335 3.330 3.304 3.304 3.329 3.336 3.320 3.301 3.266 3.587 3.324 3.301 3.304 3.326 3.302 3.313 3.329 3.596 3.327 3.289 3.313 3.333 3.336 3.324 3.302 2.997
# coordination-number N 3.178 3.179 3.178 3.178
# coordination-number Ti 7.462
# coordination-number O 2.002 1.035
# diagonal-C6 C 24.26 24.05 23.91 23.94 24.15 24.38 24.01 20.41 23.97 24.15 24.26 24.00 24.24 24.28 24.04 20.30 24.59 24.28 24.09 23.91 23.97 24.24 24.25 23.98 23.91 24.08 24.27 24.58 20.43 24.04 24.27 24.24 24.01 24.27 24.15 23.98 20.32 24.01 24.39 24.15 23.94 23.91 24.04 24.27 25.68
# diagonal-C6 N 15.60 15.60 15.60 15.60
# diagonal-C6 Ti 321.59
# diagonal-C6 O 10.41 12.78
EvdW_6 =   -0.039676
EvdW_8 =   -0.031890

---------- Allocating electronic variables ----------
Initializing wave functions:  linear combination of atomic orbitals
C pseudo-atom occupations:   s ( 2 )  p ( 2 )
N pseudo-atom occupations:   s ( 2 )  p ( 3 )
Ti pseudo-atom occupations:   s ( 2 0 )  p ( 6 )  d ( 4 )
O pseudo-atom occupations:   s ( 2 )  p ( 4 )
	FillingsUpdate:  mu: -0.251774138  nElectrons: 224.000000  magneticMoment: [ Abs: 0.00435  Tot: +0.00001 ]
LCAOMinimize: Iter:   0  F: -381.7839323559466038  |grad|_K:  4.263e-03  alpha:  1.000e+00
	FillingsUpdate:  mu: -0.234953572  nElectrons: 224.000000  magneticMoment: [ Abs: 0.00427  Tot: -0.00000 ]
LCAOMinimize: Iter:   1  F: -383.1613694419308445  |grad|_K:  1.465e-03  alpha:  1.344e-01  linmin: -1.392e-01  cgtest:  1.781e+00  t[s]:    291.54
LCAOMinimize: Encountered beta<0, resetting CG.
LCAOMinimize: 	Wrong curvature in test step, increasing alphaT to 4.031183e-01.
	FillingsUpdate:  mu: -0.292492471  nElectrons: 224.000000  magneticMoment: [ Abs: 0.00473  Tot: -0.00060 ]
LCAOMinimize: Iter:   2  F: -383.4795108792856695  |grad|_K:  1.828e-03  alpha: -2.061e-01  linmin:  2.843e-02  cgtest:  5.558e-01  t[s]:    405.44
LCAOMinimize: 	Step increased F by 4.041146e-03, reducing alpha to 7.572429e-04.
	FillingsUpdate:  mu: -0.291632576  nElectrons: 224.000000  magneticMoment: [ Abs: 0.00474  Tot: -0.00061 ]
LCAOMinimize: Iter:   3  F: -383.4798022359608467  |grad|_K:  1.894e-03  alpha:  7.572e-04  linmin: -1.737e-03  cgtest:  9.947e-01  t[s]:    611.64
LCAOMinimize: 	Predicted alpha/alphaT>3.000000, increasing alphaT to 2.271729e-03.
LCAOMinimize: 	Predicted alpha/alphaT>3.000000, increasing alphaT to 6.815186e-03.
LCAOMinimize: 	Predicted alpha/alphaT>3.000000, increasing alphaT to 2.044556e-02.
	FillingsUpdate:  mu: -0.289446368  nElectrons: 224.000000  magneticMoment: [ Abs: 0.00482  Tot: -0.00071 ]
LCAOMinimize: Iter:   4  F: -383.5442670695742891  |grad|_K:  1.328e-03  alpha:  3.449e-02  linmin: -3.415e-02  cgtest:  3.182e-01  t[s]:    792.91
LCAOMinimize: 	Wrong curvature in test step, increasing alphaT to 1.034706e-01.
	FillingsUpdate:  mu: -0.286662180  nElectrons: 224.000000  magneticMoment: [ Abs: 0.00514  Tot: -0.00104 ]
LCAOMinimize: Iter:   5  F: -383.6064829218917112  |grad|_K:  1.259e-03  alpha: -8.368e-01  linmin: -8.610e-02  cgtest:  9.204e-01  t[s]:    907.38
	FillingsUpdate:  mu: -0.283413655  nElectrons: 224.000000  magneticMoment: [ Abs: 0.00547  Tot: -0.00140 ]
LCAOMinimize: Iter:   6  F: -383.6471708945500154  |grad|_K:  1.233e-03  alpha:  2.973e-02  linmin: -1.740e-01  cgtest:  9.247e-01  t[s]:   1027.18
LCAOMinimize: 	Wrong curvature in test step, increasing alphaT to 8.920242e-02.
	FillingsUpdate:  mu: -0.284117642  nElectrons: 224.000000  magneticMoment: [ Abs: 0.00584  Tot: -0.00178 ]
LCAOMinimize: Iter:   7  F: -383.6881294411548993  |grad|_K:  1.232e-03  alpha: -5.377e-01  linmin: -2.046e-01  cgtest:  9.432e-01  t[s]:   1142.57
	FillingsUpdate:  mu: -0.284477456  nElectrons: 224.000000  magneticMoment: [ Abs: 0.00630  Tot: -0.00226 ]
LCAOMinimize: Iter:   8  F: -383.7288393351696527  |grad|_K:  1.232e-03  alpha:  2.948e-02  linmin: -2.123e-01  cgtest:  9.419e-01  t[s]:   1259.31
LCAOMinimize: 	Wrong curvature in test step, increasing alphaT to 8.843103e-02.
	FillingsUpdate:  mu: -0.284737550  nElectrons: 224.000000  magneticMoment: [ Abs: 0.00688  Tot: -0.00286 ]
LCAOMinimize: Iter:   9  F: -383.7697540313417335  |grad|_K:  1.232e-03  alpha: -4.749e-01  linmin: -2.173e-01  cgtest:  9.398e-01  t[s]:   1374.46
	FillingsUpdate:  mu: -0.285070412  nElectrons: 224.000000  magneticMoment: [ Abs: 0.00759  Tot: -0.00360 ]
LCAOMinimize: Iter:  10  F: -383.8113750771365176  |grad|_K:  1.230e-03  alpha:  2.991e-02  linmin: -2.234e-01  cgtest:  9.372e-01  t[s]:   1494.21
LCAOMinimize: 	Wrong curvature in test step, increasing alphaT to 8.974466e-02.
	FillingsUpdate:  mu: -0.285423571  nElectrons: 224.000000  magneticMoment: [ Abs: 0.00847  Tot: -0.00450 ]
LCAOMinimize: Iter:  11  F: -383.8528552802065974  |grad|_K:  1.223e-03  alpha: -4.844e-01  linmin: -2.297e-01  cgtest:  9.362e-01  t[s]:   1613.44
	FillingsUpdate:  mu: -0.285767969  nElectrons: 224.000000  magneticMoment: [ Abs: 0.00953  Tot: -0.00560 ]
LCAOMinimize: Iter:  12  F: -383.8937249805848637  |grad|_K:  1.212e-03  alpha:  2.989e-02  linmin: -2.361e-01  cgtest:  9.360e-01  t[s]:   1731.04
LCAOMinimize: 	Wrong curvature in test step, increasing alphaT to 8.966808e-02.
	FillingsUpdate:  mu: -0.286073590  nElectrons: 224.000000  magneticMoment: [ Abs: 0.01081  Tot: -0.00691 ]
LCAOMinimize: Iter:  13  F: -383.9335225914238094  |grad|_K:  1.194e-03  alpha: -5.808e-01  linmin: -2.425e-01  cgtest:  9.366e-01  t[s]:   1848.24
	FillingsUpdate:  mu: -0.286248566  nElectrons: 224.000000  magneticMoment: [ Abs: 0.01228  Tot: -0.00841 ]
LCAOMinimize: Iter:  14  F: -383.9702605286402672  |grad|_K:  1.168e-03  alpha:  2.879e-02  linmin: -2.484e-01  cgtest:  9.402e-01  t[s]:   1968.09
LCAOMinimize: 	Wrong curvature in test step, increasing alphaT to 8.635726e-02.
	FillingsUpdate:  mu: -0.285683993  nElectrons: 224.000000  magneticMoment: [ Abs: 0.01400  Tot: -0.01016 ]
LCAOMinimize: Iter:  15  F: -384.0049233325551654  |grad|_K:  1.135e-03  alpha: -8.976e-01  linmin: -2.545e-01  cgtest:  9.422e-01  t[s]:   2084.21
	FillingsUpdate:  mu: -0.281892043  nElectrons: 224.000000  magneticMoment: [ Abs: 0.01585  Tot: -0.01205 ]
LCAOMinimize: Iter:  16  F: -384.0346490014943015  |grad|_K:  1.097e-03  alpha:  2.659e-02  linmin: -2.598e-01  cgtest:  9.489e-01  t[s]:   2200.37
LCAOMinimize: 	Wrong curvature in test step, increasing alphaT to 7.976378e-02.
	FillingsUpdate:  mu: -0.275353534  nElectrons: 224.000000  magneticMoment: [ Abs: 0.01797  Tot: -0.01420 ]
LCAOMinimize: Iter:  17  F: -384.0619289035395809  |grad|_K:  1.053e-03  alpha: -2.733e+00  linmin: -2.656e-01  cgtest:  9.515e-01  t[s]:   2318.36
	FillingsUpdate:  mu: -0.270608301  nElectrons: 224.000000  magneticMoment: [ Abs: 0.02026  Tot: -0.01653 ]
LCAOMinimize: Iter:  18  F: -384.0854293335996772  |grad|_K:  1.004e-03  alpha:  2.529e-02  linmin: -2.710e-01  cgtest:  9.564e-01  t[s]:   2437.53
LCAOMinimize: Encountered beta<0, resetting CG.
LCAOMinimize: 	Predicted alpha/alphaT>3.000000, increasing alphaT to 7.586689e-02.
LCAOMinimize: 	Predicted alpha/alphaT>3.000000, increasing alphaT to 2.276007e-01.
LCAOMinimize: 	Step increased F by 2.356081e-01, reducing alpha to 3.257416e-02.
	FillingsUpdate:  mu: -0.266162153  nElectrons: 224.000000  magneticMoment: [ Abs: 0.02356  Tot: -0.01987 ]
LCAOMinimize: Iter:  19  F: -384.1125625117347226  |grad|_K:  9.339e-04  alpha:  3.257e-02  linmin: -2.794e-01  cgtest:  9.472e-01  t[s]:   2705.39
LCAOMinimize: Encountered beta<0, resetting CG.
LCAOMinimize: 	Predicted alpha/alphaT>3.000000, increasing alphaT to 9.772247e-02.
LCAOMinimize: 	Predicted alpha/alphaT>3.000000, increasing alphaT to 2.931674e-01.
	FillingsUpdate:  mu: -0.233663130  nElectrons: 224.000000  magneticMoment: [ Abs: 0.03907  Tot: -0.03553 ]
LCAOMinimize: Iter:  20  F: -384.2038289023130346  |grad|_K:  3.828e-04  alpha:  1.515e-01  linmin: -3.064e-01  cgtest:  7.397e-01  t[s]:   2884.87
LCAOMinimize: Encountered beta<0, resetting CG.
	FillingsUpdate:  mu: -0.212537120  nElectrons: 224.000000  magneticMoment: [ Abs: 0.07785  Tot: -0.07466 ]
LCAOMinimize: Iter:  21  F: -384.2156989557856832  |grad|_K:  1.811e-04  alpha:  2.145e-01  linmin:  1.366e-01  cgtest: -3.710e-01  t[s]:   3001.43
	FillingsUpdate:  mu: -0.208675794  nElectrons: 224.000000  magneticMoment: [ Abs: 0.14270  Tot: -0.13973 ]
LCAOMinimize: Iter:  22  F: -384.2168452417924414  |grad|_K:  1.563e-04  alpha:  1.559e-01  linmin:  4.710e-04  cgtest:  7.890e-01  t[s]:   3118.27
	FillingsUpdate:  mu: -0.211657309  nElectrons: 224.000000  magneticMoment: [ Abs: 0.25403  Tot: -0.25090 ]
LCAOMinimize: Iter:  23  F: -384.2185666776128414  |grad|_K:  8.584e-05  alpha:  1.687e-01  linmin: -4.812e-03  cgtest:  5.457e-02  t[s]:   3235.02
LCAOMinimize: 	Predicted alpha/alphaT>3.000000, increasing alphaT to 5.059716e-01.
	FillingsUpdate:  mu: -0.214560999  nElectrons: 224.000000  magneticMoment: [ Abs: 0.44289  Tot: -0.43862 ]
LCAOMinimize: Iter:  24  F: -384.2196776345978151  |grad|_K:  8.223e-05  alpha:  2.412e-01  linmin: -3.473e-02  cgtest:  1.179e+00  t[s]:   3385.77
LCAOMinimize: Encountered beta<0, resetting CG.
	FillingsUpdate:  mu: -0.208586075  nElectrons: 224.000000  magneticMoment: [ Abs: 0.46648  Tot: -0.46030 ]
LCAOMinimize: Iter:  25  F: -384.2200939772830566  |grad|_K:  4.431e-05  alpha:  1.706e-01  linmin: -1.129e-02  cgtest:  7.618e-01  t[s]:   3504.99
LCAOMinimize: Encountered beta<0, resetting CG.
	FillingsUpdate:  mu: -0.213677125  nElectrons: 224.000000  magneticMoment: [ Abs: 0.50339  Tot: -0.49497 ]
LCAOMinimize: Iter:  26  F: -384.2202285242742619  |grad|_K:  3.892e-05  alpha:  1.591e-01  linmin:  1.158e-02  cgtest:  1.686e-01  t[s]:   3624.65
	FillingsUpdate:  mu: -0.211900900  nElectrons: 224.000000  magneticMoment: [ Abs: 0.52836  Tot: -0.51061 ]
LCAOMinimize: Iter:  27  F: -384.2204535618585055  |grad|_K:  1.837e-05  alpha:  3.595e-01  linmin: -4.193e-02  cgtest:  7.894e-01  t[s]:   3744.64
LCAOMinimize: Encountered beta<0, resetting CG.
	FillingsUpdate:  mu: -0.210110699  nElectrons: 224.000000  magneticMoment: [ Abs: 0.52400  Tot: -0.50467 ]
LCAOMinimize: Iter:  28  F: -384.2204738625055711  |grad|_K:  1.520e-05  alpha:  1.486e-01  linmin:  1.046e-03  cgtest: -3.855e-02  t[s]:   3864.73
	FillingsUpdate:  mu: -0.211132096  nElectrons: 224.000000  magneticMoment: [ Abs: 0.53917  Tot: -0.51633 ]
LCAOMinimize: Iter:  29  F: -384.2204944478131097  |grad|_K:  1.553e-05  alpha:  2.233e-01  linmin:  4.353e-03  cgtest:  4.696e-03  t[s]:   3984.43
	FillingsUpdate:  mu: -0.211050519  nElectrons: 224.000000  magneticMoment: [ Abs: 0.55730  Tot: -0.52648 ]
LCAOMinimize: Iter:  30  F: -384.2205256824697130  |grad|_K:  7.947e-06  alpha:  3.240e-01  linmin: -3.451e-03  cgtest:  4.678e-01  t[s]:   4101.37
LCAOMinimize: None of the convergence criteria satisfied after 30 iterations.
----- createFluidSolver() ----- (Fluid-side solver setup)
   Initializing fluid molecule 'H2O'
     Initializing site 'O'
       Electron density: proportional to exp(-r/0.36935)*erfc((r-0.51523)/0.36823) with norm 6.826
       Charge density: gaussian nuclear width 0.478731 with net site charge 0.826
       Polarizability: cuspless exponential with width 0.32 and norm 3.73
       Hard sphere radius: 2.57003 bohrs
       Positions in reference frame:
         [ +0.000000 +0.000000 +0.000000 ]
     Initializing site 'H'
       Electron density: proportional to exp(-r/0.34641)*erfc((r-0)/0.390882) with norm 0.587
       Charge density: gaussian nuclear width 0.377945 with net site charge -0.413
       Polarizability: cuspless exponential with width 0.39 and norm 3.3
       Positions in reference frame:
         [ +0.000000 -1.441945 +1.122523 ]
         [ +0.000000 +1.441945 +1.122523 ]
     Net charge: 0   dipole magnitude: 0.927204
     Initializing spherical shell mfKernel with radius 2.61727 Bohr
     deltaS corrections:
       site 'O': -7.54299
       site 'H': -6.83917
   Initializing fluid molecule 'Na+'
     Initializing site 'Na'
       Electron density: proportional to exp(-r/0.19682)*erfc((r-0.71491)/0.41314) with norm 8.1383
       Charge density: gaussian nuclear width 0.365347 with net site charge -1
       Hard sphere radius: 1.86327 bohrs
       Positions in reference frame:
         [ +0.000000 +0.000000 +0.000000 ]
     Net charge: -1   dipole magnitude: 0
     Initializing gaussian mfKernel with width: 1.55004 Bohr
     deltaS corrections:
       site 'Na': -22.3555
   Initializing fluid molecule 'F-'
     Initializing site 'F'
       Electron density: proportional to exp(-r/0.38886)*erfc((r-0)/0.438782) with norm 8
       Charge density: gaussian nuclear width 0.374796 with net site charge 1
       Hard sphere radius: 2.39995 bohrs
       Positions in reference frame:
         [ +0.000000 +0.000000 +0.000000 ]
     Net charge: 1   dipole magnitude: 0
     Initializing gaussian mfKernel with width: 1.59012 Bohr
     deltaS corrections:
       site 'F': -9.04335

Correction to mu due to finite nuclear width = -0.0109887
   Cavity determined by nc: 0.00142 and sigma: 0.707107
   Nonlocal vdW cavity from gaussian model electron density with norm = 8 and sigma = 0.993594 bohr
   Charge asymmetry in cavity with sensitivity pCavity = 36.5 e-bohr/Eh
   Electrostatic cavity expanded by eta = 1.46 bohrs
   Weighted density cavitation model constrained by Nbulk: 0.0049383 bohr^-3, Pvap: 3.14029 kPa, Rvdw: 2.61727 bohr and sigmaBulk: 4.62e-05 Eh/bohr^2 at T: 298 K.
   Weighted density dispersion model using vdW pair potentials with single solvent site with sqrtC6eff: 0.77 SI.
WARNING: Vibrations: switching off translationSym and rotationSym since useConstraints is on.

---- Citations for features of the code used in this run ----

   Software package:
      R. Sundararaman, K. Letchworth-Weaver, K.A. Schwarz, D. Gunceler, Y. Ozhabes and T.A. Arias, 'JDFTx: software for joint density-functional theory', SoftwareX 6, 278 (2017)

   gga-PBE exchange-correlation functional:
      J.P. Perdew, K. Burke and M. Ernzerhof, Phys. Rev. Lett. 77, 3865 (1996)

   Pseudopotentials:
      KF Garrity, JW Bennett, KM Rabe and D Vanderbilt, Comput. Mater. Sci. 81, 446 (2014)

   DFT-D3 dispersion correction:
      S. Grimme, J. Antony, S. Ehrlich and H. Krieg, J. Chem. Phys. 132, 154104 (2010)

   DFT-D2 dispersion correction:
      S. Grimme, J. Comput. Chem. 27, 1787 (2006)

   Charge-asymmetric nonlocally-determined local-electric (CANDLE) solvation model:
      R. Sundararaman and W.A. Goddard III, J. Chem. Phys. 142, 064107 (2015)

   Total energy minimization with Auxiliary Hamiltonian:
      C. Freysoldt, S. Boeck, and J. Neugebauer, Phys. Rev. B 79, 241103(R) (2009)

   Linear-tetrahedron sampling for density of states:
      G. Lehmann and M. Taut, Phys. status solidi (b) 54, 469 (1972)

This list may not be complete. Please suggest additional citations or
report any other bugs at https://github.com/shankar1729/jdftx/issues

Initialization completed successfully at t[s]:   4116.47

------ Vibrations::calculate() -------
WARNING: Vibrations module is experimental. Please report bugs!
Compare results with and without symmetries and report discrepancies.
Degrees of freedom: 9 total, 9 symmetry-independent.

Computing DFT-D3 correction:
# coordination-number C 3.302 3.323 3.335 3.334 3.314 3.290 3.326 3.589 3.330 3.314 3.302 3.327 3.304 3.301 3.324 3.598 3.265 3.301 3.319 3.335 3.330 3.304 3.304 3.329 3.336 3.320 3.301 3.266 3.587 3.324 3.301 3.304 3.326 3.302 3.313 3.329 3.596 3.327 3.289 3.313 3.333 3.336 3.324 3.302 2.997
# coordination-number N 3.178 3.179 3.178 3.178
# coordination-number Ti 7.462
# coordination-number O 2.002 1.035
# diagonal-C6 C 24.26 24.05 23.91 23.94 24.15 24.38 24.01 20.41 23.97 24.15 24.26 24.00 24.24 24.28 24.04 20.30 24.59 24.28 24.09 23.91 23.97 24.24 24.25 23.98 23.91 24.08 24.27 24.58 20.43 24.04 24.27 24.24 24.01 24.27 24.15 23.98 20.32 24.01 24.39 24.15 23.94 23.91 24.04 24.27 25.68
# diagonal-C6 N 15.60 15.60 15.60 15.60
# diagonal-C6 Ti 321.59
# diagonal-C6 O 10.41 12.78
EvdW_6 =   -0.039676
EvdW_8 =   -0.031890
Fluid solver invoked on fresh (random / LCAO) wavefunctions
Running a vacuum solve first:

-------- Initial electronic minimization -----------
	FillingsUpdate:  mu: -0.211050496  nElectrons: 224.000000  magneticMoment: [ Abs: 0.55730  Tot: -0.52648 ]
ElecMinimize: Iter:   0  F: -384.220525682470168  |grad|_K:  1.445e-04  alpha:  1.000e+00
	FillingsUpdate:  mu: -0.136201958  nElectrons: 224.000000  magneticMoment: [ Abs: 0.56600  Tot: -0.50747 ]
	SubspaceRotationAdjust: set factor to 1
ElecMinimize: Iter:   1  F: -387.169891407413957  |grad|_K:  5.225e-05  alpha:  6.812e-01  linmin:  9.155e-05  t[s]:   4302.81
	FillingsUpdate:  mu: -0.079279959  nElectrons: 224.000000  magneticMoment: [ Abs: 0.25587  Tot: -0.13102 ]
	SubspaceRotationAdjust: set factor to 0.816
ElecMinimize: Iter:   2  F: -387.272218134464708  |grad|_K:  3.718e-05  alpha:  1.396e-01  linmin: -1.257e-03  t[s]:   4416.10
	FillingsUpdate:  mu: -0.087638557  nElectrons: 224.000000  magneticMoment: [ Abs: 0.43710  Tot: -0.35501 ]
	SubspaceRotationAdjust: set factor to 0.551
ElecMinimize: Iter:   3  F: -387.408046161335335  |grad|_K:  3.822e-05  alpha:  3.599e-01  linmin:  1.795e-04  t[s]:   4529.48
	FillingsUpdate:  mu: -0.104566055  nElectrons: 224.000000  magneticMoment: [ Abs: 0.24853  Tot: -0.18330 ]
	SubspaceRotationAdjust: set factor to 0.79
ElecMinimize: Iter:   4  F: -387.448546002774037  |grad|_K:  1.994e-05  alpha:  1.717e-01  linmin:  8.916e-05  t[s]:   4642.53
	FillingsUpdate:  mu: -0.112788197  nElectrons: 224.000000  magneticMoment: [ Abs: 0.13047  Tot: -0.04605 ]
	SubspaceRotationAdjust: set factor to 0.776
ElecMinimize: Iter:   5  F: -387.475575909893223  |grad|_K:  1.708e-05  alpha:  3.296e-01  linmin: -1.870e-04  t[s]:   4755.66
	FillingsUpdate:  mu: -0.105029847  nElectrons: 224.000000  magneticMoment: [ Abs: 0.18993  Tot: -0.14137 ]
	SubspaceRotationAdjust: set factor to 0.575
ElecMinimize: Iter:   6  F: -387.494180843272204  |grad|_K:  9.970e-06  alpha:  2.707e-01  linmin:  2.381e-04  t[s]:   4869.55
	FillingsUpdate:  mu: -0.092754324  nElectrons: 224.000000  magneticMoment: [ Abs: 0.13295  Tot: -0.06390 ]
	SubspaceRotationAdjust: set factor to 0.498
ElecMinimize: Iter:   7  F: -387.499819892911091  |grad|_K:  7.973e-06  alpha:  2.811e-01  linmin: -4.194e-04  t[s]:   4982.97
	FillingsUpdate:  mu: -0.097042168  nElectrons: 224.000000  magneticMoment: [ Abs: 0.11658  Tot: -0.07253 ]
	SubspaceRotationAdjust: set factor to 0.592
ElecMinimize: Iter:   8  F: -387.505109475095878  |grad|_K:  4.934e-06  alpha:  3.782e-01  linmin: -5.229e-06  t[s]:   5095.84
	FillingsUpdate:  mu: -0.104883333  nElectrons: 224.000000  magneticMoment: [ Abs: 0.13519  Tot: -0.10960 ]
	SubspaceRotationAdjust: set factor to 0.497
ElecMinimize: Iter:   9  F: -387.506847657250376  |grad|_K:  4.214e-06  alpha:  3.358e-01  linmin:  1.141e-04  t[s]:   5208.61
	FillingsUpdate:  mu: -0.102256145  nElectrons: 224.000000  magneticMoment: [ Abs: 0.10395  Tot: -0.07577 ]
	SubspaceRotationAdjust: set factor to 0.588
ElecMinimize: Iter:  10  F: -387.507746296278413  |grad|_K:  2.191e-06  alpha:  2.526e-01  linmin: -2.805e-05  t[s]:   5322.20
	FillingsUpdate:  mu: -0.100450861  nElectrons: 224.000000  magneticMoment: [ Abs: 0.09172  Tot: -0.06429 ]
	SubspaceRotationAdjust: set factor to 0.527
ElecMinimize: Iter:  11  F: -387.508180903934146  |grad|_K:  2.006e-06  alpha:  4.266e-01  linmin: -2.342e-06  t[s]:   5435.46
	FillingsUpdate:  mu: -0.102840694  nElectrons: 224.000000  magneticMoment: [ Abs: 0.09354  Tot: -0.07371 ]
	SubspaceRotationAdjust: set factor to 0.525
ElecMinimize: Iter:  12  F: -387.508486699099251  |grad|_K:  1.348e-06  alpha:  3.603e-01  linmin:  8.936e-06  t[s]:   5548.74
	FillingsUpdate:  mu: -0.102311248  nElectrons: 224.000000  magneticMoment: [ Abs: 0.08536  Tot: -0.06807 ]
	SubspaceRotationAdjust: set factor to 0.465
ElecMinimize: Iter:  13  F: -387.508624122045774  |grad|_K:  1.077e-06  alpha:  3.616e-01  linmin: -1.078e-05  t[s]:   5661.63
	FillingsUpdate:  mu: -0.102007350  nElectrons: 224.000000  magneticMoment: [ Abs: 0.08293  Tot: -0.06875 ]
	SubspaceRotationAdjust: set factor to 0.468
ElecMinimize: Iter:  14  F: -387.508725022056240  |grad|_K:  7.673e-07  alpha:  4.122e-01  linmin:  7.793e-07  t[s]:   5774.71
	FillingsUpdate:  mu: -0.102567585  nElectrons: 224.000000  magneticMoment: [ Abs: 0.08268  Tot: -0.07106 ]
	SubspaceRotationAdjust: set factor to 0.456
ElecMinimize: Iter:  15  F: -387.508782504626765  |grad|_K:  6.650e-07  alpha:  4.648e-01  linmin:  3.555e-05  t[s]:   5887.96
	FillingsUpdate:  mu: -0.102295911  nElectrons: 224.000000  magneticMoment: [ Abs: 0.07682  Tot: -0.06604 ]
	SubspaceRotationAdjust: set factor to 0.43
ElecMinimize: Iter:  16  F: -387.508813629369342  |grad|_K:  4.299e-07  alpha:  3.371e-01  linmin: -9.273e-06  t[s]:   6001.32
	FillingsUpdate:  mu: -0.102393435  nElectrons: 224.000000  magneticMoment: [ Abs: 0.07414  Tot: -0.06449 ]
	SubspaceRotationAdjust: set factor to 0.45
ElecMinimize: Iter:  17  F: -387.508833834430845  |grad|_K:  3.625e-07  alpha:  5.197e-01  linmin: -3.307e-06  t[s]:   6115.02
	FillingsUpdate:  mu: -0.102677796  nElectrons: 224.000000  magneticMoment: [ Abs: 0.07480  Tot: -0.06612 ]
	SubspaceRotationAdjust: set factor to 0.398
ElecMinimize: Iter:  18  F: -387.508843979173605  |grad|_K:  2.551e-07  alpha:  3.663e-01  linmin:  1.699e-06  t[s]:   6228.19
	FillingsUpdate:  mu: -0.102514536  nElectrons: 224.000000  magneticMoment: [ Abs: 0.07305  Tot: -0.06481 ]
	SubspaceRotationAdjust: set factor to 0.412
ElecMinimize: Iter:  19  F: -387.508850340488095  |grad|_K:  2.021e-07  alpha:  4.653e-01  linmin:  7.043e-07  t[s]:   6341.27
	FillingsUpdate:  mu: -0.102455279  nElectrons: 224.000000  magneticMoment: [ Abs: 0.07131  Tot: -0.06337 ]
	SubspaceRotationAdjust: set factor to 0.409
ElecMinimize: Iter:  20  F: -387.508854205287889  |grad|_K:  1.565e-07  alpha:  4.503e-01  linmin: -1.573e-06  t[s]:   6454.90
	FillingsUpdate:  mu: -0.102560433  nElectrons: 224.000000  magneticMoment: [ Abs: 0.07080  Tot: -0.06317 ]
	SubspaceRotationAdjust: set factor to 0.396
ElecMinimize: Iter:  21  F: -387.508856327785224  |grad|_K:  1.102e-07  alpha:  4.118e-01  linmin:  8.063e-07  t[s]:   6568.52
	FillingsUpdate:  mu: -0.102515538  nElectrons: 224.000000  magneticMoment: [ Abs: 0.06984  Tot: -0.06239 ]
	SubspaceRotationAdjust: set factor to 0.397
ElecMinimize: Iter:  22  F: -387.508857480927702  |grad|_K:  9.090e-08  alpha:  4.523e-01  linmin:  1.365e-06  t[s]:   6681.40
	FillingsUpdate:  mu: -0.102488140  nElectrons: 224.000000  magneticMoment: [ Abs: 0.06883  Tot: -0.06156 ]
	SubspaceRotationAdjust: set factor to 0.396
ElecMinimize: Iter:  23  F: -387.508858326477196  |grad|_K:  6.958e-08  alpha:  4.871e-01  linmin: -4.503e-06  t[s]:   6794.36
	FillingsUpdate:  mu: -0.102542780  nElectrons: 224.000000  magneticMoment: [ Abs: 0.06854  Tot: -0.06143 ]
	SubspaceRotationAdjust: set factor to 0.387
ElecMinimize: Iter:  24  F: -387.508858728506823  |grad|_K:  5.077e-08  alpha:  3.949e-01  linmin:  7.562e-08  t[s]:   6907.80
	FillingsUpdate:  mu: -0.102528380  nElectrons: 224.000000  magneticMoment: [ Abs: 0.06797  Tot: -0.06096 ]
	SubspaceRotationAdjust: set factor to 0.386
ElecMinimize: Iter:  25  F: -387.508858997553659  |grad|_K:  4.057e-08  alpha:  4.966e-01  linmin:  3.433e-07  t[s]:   7021.60
	FillingsUpdate:  mu: -0.102505065  nElectrons: 224.000000  magneticMoment: [ Abs: 0.06739  Tot: -0.06045 ]
	SubspaceRotationAdjust: set factor to 0.392
ElecMinimize: Iter:  26  F: -387.508859146374562  |grad|_K:  3.146e-08  alpha:  4.302e-01  linmin: -1.024e-07  t[s]:   7134.54
	FillingsUpdate:  mu: -0.102538476  nElectrons: 224.000000  magneticMoment: [ Abs: 0.06711  Tot: -0.06027 ]
	SubspaceRotationAdjust: set factor to 0.372
ElecMinimize: Iter:  27  F: -387.508859244147004  |grad|_K:  2.431e-08  alpha:  4.698e-01  linmin: -2.533e-06  t[s]:   7247.49
	FillingsUpdate:  mu: -0.102544572  nElectrons: 224.000000  magneticMoment: [ Abs: 0.06689  Tot: -0.06012 ]
	SubspaceRotationAdjust: set factor to 0.4
ElecMinimize: Iter:  28  F: -387.508859300573533  |grad|_K:  1.921e-08  alpha:  4.540e-01  linmin:  9.929e-07  t[s]:   7360.79
ElecMinimize: Converged (|Delta F|<1.000000e-07 for 2 iters).
Setting wave functions to eigenvectors of Hamiltonian
Converging empty states (this may take a while): |deigs|: 7.760e-03
Vacuum energy after initial minimize, F = -387.508859300573533


-------- Electronic minimization -----------
	Linear fluid (dielectric constant: 78.4, screening length: 8.12261 Bohr) occupying 0.723757 of unit cell:	Completed after 22 iterations at t[s]:   7909.79
	FillingsUpdate:  mu: -0.158806416  nElectrons: 224.000000  magneticMoment: [ Abs: 0.06583  Tot: -0.05905 ]
ElecMinimize: Iter:   0  F: -387.512715053501097  |grad|_K:  9.042e-06  alpha:  1.000e+00
	Linear fluid (dielectric constant: 78.4, screening length: 8.12261 Bohr) occupying 0.726368 of unit cell:	Completed after 18 iterations at t[s]:   8019.24
	Linear fluid (dielectric constant: 78.4, screening length: 8.12261 Bohr) occupying 0.725561 of unit cell:	Completed after 13 iterations at t[s]:   8062.93
	FillingsUpdate:  mu: -0.162403494  nElectrons: 224.000000  magneticMoment: [ Abs: 0.01911  Tot: -0.00034 ]
	SubspaceRotationAdjust: set factor to 0.539
ElecMinimize: Iter:   1  F: -387.518669638389440  |grad|_K:  3.298e-06  alpha:  6.161e-01  linmin: -5.727e-04  t[s]:   8110.55
	Linear fluid (dielectric constant: 78.4, screening length: 8.12261 Bohr) occupying 0.726181 of unit cell:	Completed after 9 iterations at t[s]:   8156.01
	Linear fluid (dielectric constant: 78.4, screening length: 8.12261 Bohr) occupying 0.726311 of unit cell:	Completed after 6 iterations at t[s]:   8195.42
	FillingsUpdate:  mu: -0.161245865  nElectrons: 224.000000  magneticMoment: [ Abs: 0.01305  Tot: -0.00006 ]
	SubspaceRotationAdjust: set factor to 0.568
ElecMinimize: Iter:   2  F: -387.520493470529857  |grad|_K:  3.097e-06  alpha:  7.416e-01  linmin:  8.888e-06  t[s]:   8244.44
	Linear fluid (dielectric constant: 78.4, screening length: 8.12261 Bohr) occupying 0.727690 of unit cell:	Completed after 14 iterations at t[s]:   8294.83
	Linear fluid (dielectric constant: 78.4, screening length: 8.12261 Bohr) occupying 0.727424 of unit cell:	Completed after 7 iterations at t[s]:   8334.46
	FillingsUpdate:  mu: -0.163144386  nElectrons: 224.000000  magneticMoment: [ Abs: 0.00731  Tot: -0.00001 ]
	SubspaceRotationAdjust: set factor to 0.555
ElecMinimize: Iter:   3  F: -387.521671672013099  |grad|_K:  2.029e-06  alpha:  5.994e-01  linmin: -1.680e-05  t[s]:   8383.67
	Linear fluid (dielectric constant: 78.4, screening length: 8.12261 Bohr) occupying 0.728077 of unit cell:	Completed after 10 iterations at t[s]:   8431.68
	Linear fluid (dielectric constant: 78.4, screening length: 8.12261 Bohr) occupying 0.727877 of unit cell:	Completed after 7 iterations at t[s]:   8471.57
	FillingsUpdate:  mu: -0.162888695  nElectrons: 224.000000  magneticMoment: [ Abs: 0.00538  Tot: -0.00000 ]
	SubspaceRotationAdjust: set factor to 0.444
ElecMinimize: Iter:   4  F: -387.522043228816756  |grad|_K:  7.837e-07  alpha:  4.174e-01  linmin:  2.221e-06  t[s]:   8520.99
	Linear fluid (dielectric constant: 78.4, screening length: 8.12261 Bohr) occupying 0.727913 of unit cell:	Completed after 4 iterations at t[s]:   8564.72
	Linear fluid (dielectric constant: 78.4, screening length: 8.12261 Bohr) occupying 0.727944 of unit cell:	Completed after 4 iterations at t[s]:   8602.93
	FillingsUpdate:  mu: -0.163194894  nElectrons: 224.000000  magneticMoment: [ Abs: 0.00386  Tot: +0.00000 ]
	SubspaceRotationAdjust: set factor to 0.399
ElecMinimize: Iter:   5  F: -387.522142108886953  |grad|_K:  5.267e-07  alpha:  7.688e-01  linmin:  5.326e-06  t[s]:   8652.59
	Linear fluid (dielectric constant: 78.4, screening length: 8.12261 Bohr) occupying 0.727904 of unit cell:	Completed after 5 iterations at t[s]:   8697.29
	Linear fluid (dielectric constant: 78.4, screening length: 8.12261 Bohr) occupying 0.727913 of unit cell:	Completed after 2 iterations at t[s]:   8733.88
	FillingsUpdate:  mu: -0.162976265  nElectrons: 224.000000  magneticMoment: [ Abs: 0.00310  Tot: +0.00000 ]
	SubspaceRotationAdjust: set factor to 0.361
ElecMinimize: Iter:   6  F: -387.522177121985521  |grad|_K:  4.060e-07  alpha:  6.020e-01  linmin:  5.508e-06  t[s]:   8783.61
	Linear fluid (dielectric constant: 78.4, screening length: 8.12261 Bohr) occupying 0.727880 of unit cell:	Completed after 6 iterations at t[s]:   8828.80
	Linear fluid (dielectric constant: 78.4, screening length: 8.12261 Bohr) occupying 0.727879 of unit cell:	Completed after 0 iterations at t[s]:   8863.44
	FillingsUpdate:  mu: -0.163045765  nElectrons: 224.000000  magneticMoment: [ Abs: 0.00219  Tot: +0.00000 ]
	SubspaceRotationAdjust: set factor to 0.366
ElecMinimize: Iter:   7  F: -387.522198563425263  |grad|_K:  2.187e-07  alpha:  6.196e-01  linmin: -1.471e-04  t[s]:   8912.76
	Linear fluid (dielectric constant: 78.4, screening length: 8.12261 Bohr) occupying 0.727875 of unit cell:	Completed after 3 iterations at t[s]:   8955.74
	Linear fluid (dielectric constant: 78.4, screening length: 8.12261 Bohr) occupying 0.727873 of unit cell:	Completed after 2 iterations at t[s]:   8992.78
	FillingsUpdate:  mu: -0.163038966  nElectrons: 224.000000  magneticMoment: [ Abs: 0.00139  Tot: +0.00000 ]
	SubspaceRotationAdjust: set factor to 0.384
ElecMinimize: Iter:   8  F: -387.522206868306341  |grad|_K:  1.475e-07  alpha:  8.155e-01  linmin: -9.175e-06  t[s]:   9042.13
	Linear fluid (dielectric constant: 78.4, screening length: 8.12261 Bohr) occupying 0.727875 of unit cell:	Completed after 2 iterations at t[s]:   9084.70
	Linear fluid (dielectric constant: 78.4, screening length: 8.12261 Bohr) occupying 0.727875 of unit cell:	Completed after 0 iterations at t[s]:   9119.28
	FillingsUpdate:  mu: -0.163059974  nElectrons: 224.000000  magneticMoment: [ Abs: 0.00089  Tot: +0.00000 ]
	SubspaceRotationAdjust: set factor to 0.391
ElecMinimize: Iter:   9  F: -387.522210467264358  |grad|_K:  9.994e-08  alpha:  7.836e-01  linmin:  8.673e-06  t[s]:   9168.23
	Linear fluid (dielectric constant: 78.4, screening length: 8.12261 Bohr) occupying 0.727878 of unit cell:	Completed after 2 iterations at t[s]:   9211.40
	Linear fluid (dielectric constant: 78.4, screening length: 8.12261 Bohr) occupying 0.727877 of unit cell:	Completed after 0 iterations at t[s]:   9245.98
	FillingsUpdate:  mu: -0.163037395  nElectrons: 224.000000  magneticMoment: [ Abs: 0.00063  Tot: +0.00000 ]
	SubspaceRotationAdjust: set factor to 0.359
ElecMinimize: Iter:  10  F: -387.522211699432887  |grad|_K:  7.399e-08  alpha:  5.763e-01  linmin:  9.737e-05  t[s]:   9295.21
	Linear fluid (dielectric constant: 78.4, screening length: 8.12261 Bohr) occupying 0.727878 of unit cell:	Completed after 2 iterations at t[s]:   9338.05
	Linear fluid (dielectric constant: 78.4, screening length: 8.12261 Bohr) occupying 0.727878 of unit cell:	Completed after 0 iterations at t[s]:   9373.26
	FillingsUpdate:  mu: -0.163076042  nElectrons: 224.000000  magneticMoment: [ Abs: 0.00048  Tot: +0.00000 ]
	SubspaceRotationAdjust: set factor to 0.274
ElecMinimize: Iter:  11  F: -387.522212125105682  |grad|_K:  4.877e-08  alpha:  4.264e-01  linmin:  3.431e-06  t[s]:   9423.24
	Linear fluid (dielectric constant: 78.4, screening length: 8.12261 Bohr) occupying 0.727877 of unit cell:	Completed after 2 iterations at t[s]:   9466.59
	Linear fluid (dielectric constant: 78.4, screening length: 8.12261 Bohr) occupying 0.727877 of unit cell:	Completed after 0 iterations at t[s]:   9501.99
	FillingsUpdate:  mu: -0.163060331  nElectrons: 224.000000  magneticMoment: [ Abs: 0.00039  Tot: +0.00000 ]
	SubspaceRotationAdjust: set factor to 0.274
ElecMinimize: Iter:  12  F: -387.522212331543187  |grad|_K:  2.483e-08  alpha:  4.174e-01  linmin: -4.254e-04  t[s]:   9551.77
	Linear fluid (dielectric constant: 78.4, screening length: 8.12261 Bohr) occupying 0.727877 of unit cell:	Completed after 0 iterations at t[s]:   9592.96
	Linear fluid (dielectric constant: 78.4, screening length: 8.12261 Bohr) occupying 0.727877 of unit cell:	Completed after 0 iterations at t[s]:   9628.00
	FillingsUpdate:  mu: -0.163060130  nElectrons: 224.000000  magneticMoment: [ Abs: 0.00030  Tot: +0.00000 ]
	SubspaceRotationAdjust: set factor to 0.279
ElecMinimize: Iter:  13  F: -387.522212448438040  |grad|_K:  2.040e-08  alpha:  7.622e-01  linmin:  1.898e-07  t[s]:   9677.87
	Linear fluid (dielectric constant: 78.4, screening length: 8.12261 Bohr) occupying 0.727877 of unit cell:	Completed after 0 iterations at t[s]:   9719.22
	Linear fluid (dielectric constant: 78.4, screening length: 8.12261 Bohr) occupying 0.727877 of unit cell:	Completed after 0 iterations at t[s]:   9754.57
	FillingsUpdate:  mu: -0.163059992  nElectrons: 224.000000  magneticMoment: [ Abs: 0.00022  Tot: +0.00000 ]
	SubspaceRotationAdjust: set factor to 0.286
ElecMinimize: Iter:  14  F: -387.522212496849079  |grad|_K:  1.314e-08  alpha:  5.531e-01  linmin:  1.278e-07  t[s]:   9804.36
	Linear fluid (dielectric constant: 78.4, screening length: 8.12261 Bohr) occupying 0.727877 of unit cell:	Completed after 0 iterations at t[s]:   9845.30
	Linear fluid (dielectric constant: 78.4, screening length: 8.12261 Bohr) occupying 0.727877 of unit cell:	Completed after 0 iterations at t[s]:   9880.48
	FillingsUpdate:  mu: -0.163059937  nElectrons: 224.000000  magneticMoment: [ Abs: 0.00016  Tot: +0.00000 ]
	SubspaceRotationAdjust: set factor to 0.302
ElecMinimize: Iter:  15  F: -387.522212523251767  |grad|_K:  8.170e-09  alpha:  7.261e-01  linmin: -1.845e-06  t[s]:   9930.62
ElecMinimize: Converged (|Delta F|<1.000000e-07 for 2 iters).
Setting wave functions to eigenvectors of Hamiltonian
Converging empty states (this may take a while): |deigs|: 1.013e-03
Single-point solvation energy estimate, DeltaF = -0.013353222678234

Computing DFT-D3 correction:
# coordination-number C 3.302 3.323 3.335 3.334 3.314 3.290 3.326 3.589 3.330 3.314 3.302 3.327 3.304 3.301 3.324 3.598 3.265 3.301 3.319 3.335 3.330 3.304 3.304 3.329 3.336 3.320 3.301 3.266 3.587 3.324 3.301 3.304 3.326 3.302 3.313 3.329 3.596 3.327 3.289 3.313 3.333 3.336 3.324 3.302 2.997
# coordination-number N 3.178 3.179 3.178 3.178
# coordination-number Ti 7.462
# coordination-number O 2.002 1.035
# diagonal-C6 C 24.26 24.05 23.91 23.94 24.15 24.38 24.01 20.41 23.97 24.15 24.26 24.00 24.24 24.28 24.04 20.30 24.59 24.28 24.09 23.91 23.97 24.24 24.25 23.98 23.91 24.08 24.27 24.58 20.43 24.04 24.27 24.24 24.01 24.27 24.15 23.98 20.32 24.01 24.39 24.15 23.94 23.91 24.04 24.27 25.68
# diagonal-C6 N 15.60 15.60 15.60 15.60
# diagonal-C6 Ti 321.59
# diagonal-C6 O 10.41 12.78
EvdW_6 =   -0.039676
EvdW_8 =   -0.031890
Completed 1 of 10 configurations.

Computing DFT-D3 correction:
# coordination-number C 3.302 3.323 3.335 3.334 3.314 3.290 3.326 3.589 3.330 3.314 3.302 3.327 3.304 3.301 3.324 3.598 3.265 3.301 3.319 3.335 3.330 3.304 3.304 3.329 3.336 3.320 3.301 3.266 3.587 3.324 3.301 3.304 3.326 3.302 3.313 3.329 3.596 3.327 3.289 3.313 3.333 3.336 3.324 3.302 2.997
# coordination-number N 3.178 3.179 3.178 3.178
# coordination-number Ti 7.462
# coordination-number O 2.002 1.035
# diagonal-C6 C 24.26 24.05 23.91 23.94 24.15 24.38 24.01 20.41 23.97 24.15 24.26 24.00 24.24 24.28 24.04 20.30 24.59 24.28 24.09 23.91 23.97 24.24 24.25 23.98 23.91 24.08 24.27 24.58 20.43 24.04 24.27 24.24 24.01 24.27 24.15 23.98 20.32 24.01 24.39 24.15 23.94 23.91 24.04 24.27 25.68
# diagonal-C6 N 15.60 15.60 15.60 15.60
# diagonal-C6 Ti 321.59
# diagonal-C6 O 10.41 12.78
EvdW_6 =   -0.039676
EvdW_8 =   -0.031890

-------- Electronic minimization -----------
	Linear fluid (dielectric constant: 78.4, screening length: 8.12261 Bohr) occupying 0.727878 of unit cell:	Completed after 6 iterations at t[s]:  10494.03
	FillingsUpdate:  mu: -0.163070222  nElectrons: 224.000000  magneticMoment: [ Abs: 0.00007  Tot: +0.00000 ]
ElecMinimize: Iter:   0  F: -387.522185178854386  |grad|_K:  3.292e-07  alpha:  1.000e+00
	Linear fluid (dielectric constant: 78.4, screening length: 8.12261 Bohr) occupying 0.727879 of unit cell:	Completed after 3 iterations at t[s]:  10593.41
	Linear fluid (dielectric constant: 78.4, screening length: 8.12261 Bohr) occupying 0.727879 of unit cell:	Completed after 2 iterations at t[s]:  10630.34
	FillingsUpdate:  mu: -0.163051785  nElectrons: 224.000000  magneticMoment: [ Abs: 0.00005  Tot: +0.00000 ]
	SubspaceRotationAdjust: set factor to 0.416
ElecMinimize: Iter:   1  F: -387.522203147345010  |grad|_K:  1.386e-07  alpha:  7.885e-01  linmin:  7.171e-05  t[s]:  10679.94
	Linear fluid (dielectric constant: 78.4, screening length: 8.12261 Bohr) occupying 0.727879 of unit cell:	Completed after 2 iterations at t[s]:  10722.68
	Linear fluid (dielectric constant: 78.4, screening length: 8.12261 Bohr) occupying 0.727879 of unit cell:	Completed after 1 iterations at t[s]:  10758.98
	FillingsUpdate:  mu: -0.163076191  nElectrons: 224.000000  magneticMoment: [ Abs: 0.00004  Tot: +0.00000 ]
	SubspaceRotationAdjust: set factor to 0.532
ElecMinimize: Iter:   2  F: -387.522207228004959  |grad|_K:  9.903e-08  alpha:  1.014e+00  linmin: -5.540e-05  t[s]:  10808.50
	Linear fluid (dielectric constant: 78.4, screening length: 8.12261 Bohr) occupying 0.727879 of unit cell:	Completed after 2 iterations at t[s]:  10851.25
	Linear fluid (dielectric constant: 78.4, screening length: 8.12261 Bohr) occupying 0.727879 of unit cell:	Completed after 2 iterations at t[s]:  10888.31
	FillingsUpdate:  mu: -0.163048162  nElectrons: 224.000000  magneticMoment: [ Abs: 0.00003  Tot: +0.00000 ]
	SubspaceRotationAdjust: set factor to 0.586
ElecMinimize: Iter:   3  F: -387.522208461503340  |grad|_K:  7.212e-08  alpha:  5.817e-01  linmin:  6.300e-05  t[s]:  10938.26
	Linear fluid (dielectric constant: 78.4, screening length: 8.12261 Bohr) occupying 0.727879 of unit cell:	Completed after 2 iterations at t[s]:  10981.21
	Linear fluid (dielectric constant: 78.4, screening length: 8.12261 Bohr) occupying 0.727879 of unit cell:	Completed after 0 iterations at t[s]:  11016.43
	FillingsUpdate:  mu: -0.163073319  nElectrons: 224.000000  magneticMoment: [ Abs: 0.00002  Tot: +0.00000 ]
	SubspaceRotationAdjust: set factor to 0.466
ElecMinimize: Iter:   4  F: -387.522208906999538  |grad|_K:  4.317e-08  alpha:  4.153e-01  linmin:  2.106e-04  t[s]:  11066.12
	Linear fluid (dielectric constant: 78.4, screening length: 8.12261 Bohr) occupying 0.727879 of unit cell:	Completed after 2 iterations at t[s]:  11109.23
	Linear fluid (dielectric constant: 78.4, screening length: 8.12261 Bohr) occupying 0.727879 of unit cell:	Completed after 0 iterations at t[s]:  11144.64
	FillingsUpdate:  mu: -0.163056861  nElectrons: 224.000000  magneticMoment: [ Abs: 0.00002  Tot: +0.00000 ]
	SubspaceRotationAdjust: set factor to 0.357
ElecMinimize: Iter:   5  F: -387.522209004173021  |grad|_K:  2.498e-08  alpha:  3.172e-01  linmin: -2.563e-04  t[s]:  11194.47
	Linear fluid (dielectric constant: 78.4, screening length: 8.12261 Bohr) occupying 0.727879 of unit cell:	Completed after 0 iterations at t[s]:  11235.51
	Linear fluid (dielectric constant: 78.4, screening length: 8.12261 Bohr) occupying 0.727879 of unit cell:	Completed after 0 iterations at t[s]:  11271.38
	FillingsUpdate:  mu: -0.163056575  nElectrons: 224.000000  magneticMoment: [ Abs: 0.00001  Tot: +0.00000 ]
	SubspaceRotationAdjust: set factor to 0.484
ElecMinimize: Iter:   6  F: -387.522209100764996  |grad|_K:  1.580e-08  alpha:  7.200e-01  linmin:  5.727e-05  t[s]:  11321.08
ElecMinimize: Converged (|Delta F|<1.000000e-07 for 2 iters).
Setting wave functions to eigenvectors of Hamiltonian
Converging empty states (this may take a while): |deigs|: 7.294e-08

Computing DFT-D3 correction:
# coordination-number C 3.302 3.323 3.335 3.334 3.314 3.290 3.326 3.589 3.330 3.314 3.302 3.327 3.304 3.301 3.324 3.598 3.265 3.301 3.319 3.335 3.330 3.304 3.304 3.329 3.336 3.320 3.301 3.266 3.587 3.324 3.301 3.304 3.326 3.302 3.313 3.329 3.596 3.327 3.289 3.313 3.333 3.336 3.324 3.302 2.997
# coordination-number N 3.178 3.179 3.178 3.178
# coordination-number Ti 7.462
# coordination-number O 2.002 1.035
# diagonal-C6 C 24.26 24.05 23.91 23.94 24.15 24.38 24.01 20.41 23.97 24.15 24.26 24.00 24.24 24.28 24.04 20.30 24.59 24.28 24.09 23.91 23.97 24.24 24.25 23.98 23.91 24.08 24.27 24.58 20.43 24.04 24.27 24.24 24.01 24.27 24.15 23.98 20.32 24.01 24.39 24.15 23.94 23.91 24.04 24.27 25.68
# diagonal-C6 N 15.60 15.60 15.60 15.60
# diagonal-C6 Ti 321.59
# diagonal-C6 O 10.41 12.78
EvdW_6 =   -0.039676
EvdW_8 =   -0.031890
Completed 2 of 10 configurations.

Computing DFT-D3 correction:
# coordination-number C 3.302 3.323 3.335 3.334 3.314 3.290 3.326 3.589 3.330 3.314 3.302 3.327 3.304 3.301 3.324 3.598 3.265 3.301 3.319 3.335 3.330 3.304 3.304 3.329 3.336 3.320 3.301 3.266 3.587 3.324 3.301 3.304 3.326 3.302 3.313 3.329 3.596 3.327 3.289 3.313 3.333 3.336 3.324 3.302 2.997
# coordination-number N 3.178 3.179 3.178 3.178
# coordination-number Ti 7.462
# coordination-number O 2.002 1.035
# diagonal-C6 C 24.26 24.05 23.91 23.94 24.15 24.38 24.01 20.41 23.97 24.15 24.26 24.00 24.24 24.28 24.04 20.30 24.59 24.28 24.09 23.91 23.97 24.24 24.25 23.98 23.91 24.08 24.27 24.58 20.43 24.04 24.27 24.24 24.01 24.27 24.15 23.98 20.32 24.01 24.39 24.15 23.94 23.91 24.04 24.27 25.68
# diagonal-C6 N 15.60 15.60 15.60 15.60
# diagonal-C6 Ti 321.59
# diagonal-C6 O 10.41 12.78
EvdW_6 =   -0.039677
EvdW_8 =   -0.031889

-------- Electronic minimization -----------
	Linear fluid (dielectric constant: 78.4, screening length: 8.12261 Bohr) occupying 0.727903 of unit cell:	Completed after 7 iterations at t[s]:  11514.08
	FillingsUpdate:  mu: -0.163075957  nElectrons: 224.000000  magneticMoment: [ Abs: 0.00001  Tot: +0.00000 ]
ElecMinimize: Iter:   0  F: -387.522126810201826  |grad|_K:  5.964e-07  alpha:  1.000e+00
	Linear fluid (dielectric constant: 78.4, screening length: 8.12261 Bohr) occupying 0.727904 of unit cell:	Completed after 6 iterations at t[s]:  11615.79
	Linear fluid (dielectric constant: 78.4, screening length: 8.12261 Bohr) occupying 0.727904 of unit cell:	Completed after 3 iterations at t[s]:  11653.71
	FillingsUpdate:  mu: -0.163038399  nElectrons: 224.000000  magneticMoment: [ Abs: 0.00000  Tot: +0.00000 ]
	SubspaceRotationAdjust: set factor to 0.531
ElecMinimize: Iter:   1  F: -387.522176724757969  |grad|_K:  2.880e-07  alpha:  6.674e-01  linmin:  2.432e-05  t[s]:  11703.47
	Linear fluid (dielectric constant: 78.4, screening length: 8.12261 Bohr) occupying 0.727916 of unit cell:	Completed after 3 iterations at t[s]:  11747.20
	Linear fluid (dielectric constant: 78.4, screening length: 8.12261 Bohr) occupying 0.727915 of unit cell:	Completed after 1 iterations at t[s]:  11783.69
	FillingsUpdate:  mu: -0.163089476  nElectrons: 224.000000  magneticMoment: [ Abs: 0.00000  Tot: +0.00000 ]
	SubspaceRotationAdjust: set factor to 0.556
ElecMinimize: Iter:   2  F: -387.522187691352201  |grad|_K:  1.818e-07  alpha:  6.308e-01  linmin:  1.174e-04  t[s]:  11833.99
	Linear fluid (dielectric constant: 78.4, screening length: 8.12261 Bohr) occupying 0.727917 of unit cell:	Completed after 2 iterations at t[s]:  11877.15
	Linear fluid (dielectric constant: 78.4, screening length: 8.12261 Bohr) occupying 0.727917 of unit cell:	Completed after 0 iterations at t[s]:  11912.28
	FillingsUpdate:  mu: -0.163032411  nElectrons: 224.000000  magneticMoment: [ Abs: 0.00000  Tot: +0.00000 ]
	SubspaceRotationAdjust: set factor to 0.499
ElecMinimize: Iter:   3  F: -387.522191827118377  |grad|_K:  1.246e-07  alpha:  6.001e-01  linmin:  7.585e-05  t[s]:  11962.13
	Linear fluid (dielectric constant: 78.4, screening length: 8.12261 Bohr) occupying 0.727920 of unit cell:	Completed after 3 iterations at t[s]:  12006.11
	Linear fluid (dielectric constant: 78.4, screening length: 8.12261 Bohr) occupying 0.727919 of unit cell:	Completed after 1 iterations at t[s]:  12042.59
	FillingsUpdate:  mu: -0.163085869  nElectrons: 224.000000  magneticMoment: [ Abs: 0.00000  Tot: +0.00000 ]
	SubspaceRotationAdjust: set factor to 0.342
ElecMinimize: Iter:   4  F: -387.522192939163745  |grad|_K:  5.360e-08  alpha:  3.494e-01  linmin:  1.177e-04  t[s]:  12092.23
	Linear fluid (dielectric constant: 78.4, screening length: 8.12261 Bohr) occupying 0.727920 of unit cell:	Completed after 0 iterations at t[s]:  12133.59
	Linear fluid (dielectric constant: 78.4, screening length: 8.12261 Bohr) occupying 0.727921 of unit cell:	Completed after 1 iterations at t[s]:  12170.00
	FillingsUpdate:  mu: -0.163069057  nElectrons: 224.000000  magneticMoment: [ Abs: 0.00000  Tot: +0.00000 ]
	SubspaceRotationAdjust: set factor to 0.289
ElecMinimize: Iter:   5  F: -387.522193307451346  |grad|_K:  3.015e-08  alpha:  8.016e-01  linmin:  1.941e-03  t[s]:  12219.25
	Linear fluid (dielectric constant: 78.4, screening length: 8.12261 Bohr) occupying 0.727923 of unit cell:	Completed after 0 iterations at t[s]:  12260.28
	Linear fluid (dielectric constant: 78.4, screening length: 8.12261 Bohr) occupying 0.727923 of unit cell:	Completed after 0 iterations at t[s]:  12296.20
	FillingsUpdate:  mu: -0.163075525  nElectrons: 224.000000  magneticMoment: [ Abs: 0.00000  Tot: +0.00000 ]
	SubspaceRotationAdjust: set factor to 0.334
ElecMinimize: Iter:   6  F: -387.522193428161074  |grad|_K:  1.827e-08  alpha:  8.467e-01  linmin:  2.131e-04  t[s]:  12345.90
	Linear fluid (dielectric constant: 78.4, screening length: 8.12261 Bohr) occupying 0.727924 of unit cell:	Completed after 1 iterations at t[s]:  12388.85
	Linear fluid (dielectric constant: 78.4, screening length: 8.12261 Bohr) occupying 0.727924 of unit cell:	Completed after 0 iterations at t[s]:  12423.99
	FillingsUpdate:  mu: -0.163079105  nElectrons: 224.000000  magneticMoment: [ Abs: 0.00000  Tot: +0.00000 ]
	SubspaceRotationAdjust: set factor to 0.3
ElecMinimize: Iter:   7  F: -387.522193452881311  |grad|_K:  1.583e-08  alpha:  4.406e-01  linmin:  7.810e-04  t[s]:  12473.46
	Linear fluid (dielectric constant: 78.4, screening length: 8.12261 Bohr) occupying 0.727924 of unit cell:	Completed after 0 iterations at t[s]:  12514.77
	Linear fluid (dielectric constant: 78.4, screening length: 8.12261 Bohr) occupying 0.727924 of unit cell:	Completed after 0 iterations at t[s]:  12549.59
	FillingsUpdate:  mu: -0.163079236  nElectrons: 224.000000  magneticMoment: [ Abs: 0.00000  Tot: +0.00000 ]
	SubspaceRotationAdjust: set factor to 0.405
ElecMinimize: Iter:   8  F: -387.522193477896565  |grad|_K:  1.357e-08  alpha:  4.992e-01  linmin:  9.976e-06  t[s]:  12599.33
ElecMinimize: Converged (|Delta F|<1.000000e-07 for 2 iters).
Setting wave functions to eigenvectors of Hamiltonian
Converging empty states (this may take a while): |deigs|: 1.867e-08

Computing DFT-D3 correction:
# coordination-number C 3.302 3.323 3.335 3.334 3.314 3.290 3.326 3.589 3.330 3.314 3.302 3.327 3.304 3.301 3.324 3.598 3.265 3.301 3.319 3.335 3.330 3.304 3.304 3.329 3.336 3.320 3.301 3.266 3.587 3.324 3.301 3.304 3.326 3.302 3.313 3.329 3.596 3.327 3.289 3.313 3.333 3.336 3.324 3.302 2.997
# coordination-number N 3.178 3.179 3.178 3.178
# coordination-number Ti 7.462
# coordination-number O 2.002 1.035
# diagonal-C6 C 24.26 24.05 23.91 23.94 24.15 24.38 24.01 20.41 23.97 24.15 24.26 24.00 24.24 24.28 24.04 20.30 24.59 24.28 24.09 23.91 23.97 24.24 24.25 23.98 23.91 24.08 24.27 24.58 20.43 24.04 24.27 24.24 24.01 24.27 24.15 23.98 20.32 24.01 24.39 24.15 23.94 23.91 24.04 24.27 25.68
# diagonal-C6 N 15.60 15.60 15.60 15.60
# diagonal-C6 Ti 321.59
# diagonal-C6 O 10.41 12.78
EvdW_6 =   -0.039677
EvdW_8 =   -0.031889
Completed 3 of 10 configurations.

Computing DFT-D3 correction:
# coordination-number C 3.302 3.323 3.335 3.334 3.314 3.290 3.326 3.589 3.330 3.314 3.302 3.327 3.304 3.301 3.324 3.598 3.265 3.301 3.319 3.335 3.330 3.304 3.304 3.329 3.336 3.320 3.301 3.266 3.587 3.324 3.301 3.304 3.326 3.302 3.313 3.329 3.596 3.327 3.289 3.313 3.333 3.336 3.324 3.302 2.996
# coordination-number N 3.178 3.179 3.178 3.178
# coordination-number Ti 7.462
# coordination-number O 2.002 1.035
# diagonal-C6 C 24.26 24.05 23.91 23.94 24.15 24.38 24.01 20.41 23.97 24.15 24.26 24.00 24.24 24.28 24.04 20.30 24.59 24.28 24.09 23.91 23.97 24.24 24.25 23.98 23.91 24.08 24.27 24.58 20.43 24.04 24.27 24.24 24.01 24.27 24.15 23.98 20.32 24.01 24.39 24.15 23.94 23.91 24.04 24.27 25.68
# diagonal-C6 N 15.60 15.60 15.60 15.60
# diagonal-C6 Ti 321.59
# diagonal-C6 O 10.41 12.78
EvdW_6 =   -0.039677
EvdW_8 =   -0.031883

-------- Electronic minimization -----------
	Linear fluid (dielectric constant: 78.4, screening length: 8.12261 Bohr) occupying 0.727843 of unit cell:	Completed after 7 iterations at t[s]:  12772.59
	FillingsUpdate:  mu: -0.162941629  nElectrons: 224.000000  magneticMoment: [ Abs: 0.00000  Tot: +0.00000 ]
ElecMinimize: Iter:   0  F: -387.522074118836770  |grad|_K:  7.708e-07  alpha:  1.000e+00
	Linear fluid (dielectric constant: 78.4, screening length: 8.12261 Bohr) occupying 0.727846 of unit cell:	Completed after 7 iterations at t[s]:  12874.48
	Linear fluid (dielectric constant: 78.4, screening length: 8.12261 Bohr) occupying 0.727845 of unit cell:	Completed after 5 iterations at t[s]:  12913.41
	FillingsUpdate:  mu: -0.163058201  nElectrons: 224.000000  magneticMoment: [ Abs: 0.00000  Tot: +0.00000 ]
	SubspaceRotationAdjust: set factor to 0.395
ElecMinimize: Iter:   1  F: -387.522147806275200  |grad|_K:  3.665e-07  alpha:  5.900e-01  linmin:  1.078e-05  t[s]:  12963.65
	Linear fluid (dielectric constant: 78.4, screening length: 8.12261 Bohr) occupying 0.727822 of unit cell:	Completed after 3 iterations at t[s]:  13008.00
	Linear fluid (dielectric constant: 78.4, screening length: 8.12261 Bohr) occupying 0.727820 of unit cell:	Completed after 2 iterations at t[s]:  13045.10
	FillingsUpdate:  mu: -0.162935245  nElectrons: 224.000000  magneticMoment: [ Abs: 0.00000  Tot: +0.00000 ]
	SubspaceRotationAdjust: set factor to 0.425
ElecMinimize: Iter:   2  F: -387.522165504601389  |grad|_K:  2.347e-07  alpha:  6.284e-01  linmin: -1.730e-05  t[s]:  13094.48
	Linear fluid (dielectric constant: 78.4, screening length: 8.12261 Bohr) occupying 0.727806 of unit cell:	Completed after 2 iterations at t[s]:  13137.54
	Linear fluid (dielectric constant: 78.4, screening length: 8.12261 Bohr) occupying 0.727806 of unit cell:	Completed after 0 iterations at t[s]:  13172.81
	FillingsUpdate:  mu: -0.162997847  nElectrons: 224.000000  magneticMoment: [ Abs: 0.00000  Tot: +0.00000 ]
	SubspaceRotationAdjust: set factor to 0.411
ElecMinimize: Iter:   3  F: -387.522172618347383  |grad|_K:  1.712e-07  alpha:  6.134e-01  linmin:  4.688e-05  t[s]:  13222.61
	Linear fluid (dielectric constant: 78.4, screening length: 8.12261 Bohr) occupying 0.727795 of unit cell:	Completed after 2 iterations at t[s]:  13265.61
	Linear fluid (dielectric constant: 78.4, screening length: 8.12261 Bohr) occupying 0.727798 of unit cell:	Completed after 1 iterations at t[s]:  13301.60
	FillingsUpdate:  mu: -0.162951180  nElectrons: 224.000000  magneticMoment: [ Abs: 0.00000  Tot: +0.00000 ]
	SubspaceRotationAdjust: set factor to 0.382
ElecMinimize: Iter:   4  F: -387.522175648445568  |grad|_K:  7.654e-08  alpha:  4.955e-01  linmin:  1.945e-04  t[s]:  13350.39
	Linear fluid (dielectric constant: 78.4, screening length: 8.12261 Bohr) occupying 0.727793 of unit cell:	Completed after 2 iterations at t[s]:  13392.30
	Linear fluid (dielectric constant: 78.4, screening length: 8.12261 Bohr) occupying 0.727791 of unit cell:	Completed after 0 iterations at t[s]:  13426.53
	FillingsUpdate:  mu: -0.162959439  nElectrons: 224.000000  magneticMoment: [ Abs: 0.00000  Tot: +0.00000 ]
	SubspaceRotationAdjust: set factor to 0.395
ElecMinimize: Iter:   5  F: -387.522176484426893  |grad|_K:  3.519e-08  alpha:  6.635e-01  linmin: -1.405e-03  t[s]:  13475.01
	Linear fluid (dielectric constant: 78.4, screening length: 8.12261 Bohr) occupying 0.727788 of unit cell:	Completed after 0 iterations at t[s]:  13514.91
	Linear fluid (dielectric constant: 78.4, screening length: 8.12261 Bohr) occupying 0.727786 of unit cell:	Completed after 1 iterations at t[s]:  13549.79
	FillingsUpdate:  mu: -0.162957831  nElectrons: 224.000000  magneticMoment: [ Abs: 0.00000  Tot: +0.00000 ]
	SubspaceRotationAdjust: set factor to 0.413
ElecMinimize: Iter:   6  F: -387.522176763362381  |grad|_K:  2.694e-08  alpha:  1.064e+00  linmin:  4.014e-04  t[s]:  13597.19
	Linear fluid (dielectric constant: 78.4, screening length: 8.12261 Bohr) occupying 0.727782 of unit cell:	Completed after 1 iterations at t[s]:  13638.58
	Linear fluid (dielectric constant: 78.4, screening length: 8.12261 Bohr) occupying 0.727784 of unit cell:	Completed after 0 iterations at t[s]:  13673.71
	FillingsUpdate:  mu: -0.162946321  nElectrons: 224.000000  magneticMoment: [ Abs: 0.00000  Tot: +0.00000 ]
	SubspaceRotationAdjust: set factor to 0.378
ElecMinimize: Iter:   7  F: -387.522176837697259  |grad|_K:  1.899e-08  alpha:  5.221e-01  linmin:  6.595e-04  t[s]:  13723.29
	Linear fluid (dielectric constant: 78.4, screening length: 8.12261 Bohr) occupying 0.727783 of unit cell:	Completed after 0 iterations at t[s]:  13765.21
	Linear fluid (dielectric constant: 78.4, screening length: 8.12261 Bohr) occupying 0.727783 of unit cell:	Completed after 0 iterations at t[s]:  13800.14
	FillingsUpdate:  mu: -0.162949255  nElectrons: 224.000000  magneticMoment: [ Abs: 0.00000  Tot: +0.00000 ]
	SubspaceRotationAdjust: set factor to 0.483
ElecMinimize: Iter:   8  F: -387.522176866114307  |grad|_K:  1.187e-08  alpha:  4.429e-01  linmin: -2.228e-03  t[s]:  13849.83
ElecMinimize: Converged (|Delta F|<1.000000e-07 for 2 iters).
Setting wave functions to eigenvectors of Hamiltonian
Converging empty states (this may take a while): |deigs|: 2.509e-08

Computing DFT-D3 correction:
# coordination-number C 3.302 3.323 3.335 3.334 3.314 3.290 3.326 3.589 3.330 3.314 3.302 3.327 3.304 3.301 3.324 3.598 3.265 3.301 3.319 3.335 3.330 3.304 3.304 3.329 3.336 3.320 3.301 3.266 3.587 3.324 3.301 3.304 3.326 3.302 3.313 3.329 3.596 3.327 3.289 3.313 3.333 3.336 3.324 3.302 2.996
# coordination-number N 3.178 3.179 3.178 3.178
# coordination-number Ti 7.462
# coordination-number O 2.002 1.035
# diagonal-C6 C 24.26 24.05 23.91 23.94 24.15 24.38 24.01 20.41 23.97 24.15 24.26 24.00 24.24 24.28 24.04 20.30 24.59 24.28 24.09 23.91 23.97 24.24 24.25 23.98 23.91 24.08 24.27 24.58 20.43 24.04 24.27 24.24 24.01 24.27 24.15 23.98 20.32 24.01 24.39 24.15 23.94 23.91 24.04 24.27 25.68
# diagonal-C6 N 15.60 15.60 15.60 15.60
# diagonal-C6 Ti 321.59
# diagonal-C6 O 10.41 12.78
EvdW_6 =   -0.039677
EvdW_8 =   -0.031883
Completed 4 of 10 configurations.

Computing DFT-D3 correction:
# coordination-number C 3.302 3.323 3.335 3.334 3.314 3.290 3.326 3.589 3.330 3.314 3.302 3.327 3.304 3.301 3.324 3.598 3.265 3.301 3.319 3.335 3.330 3.304 3.304 3.329 3.336 3.320 3.301 3.266 3.587 3.324 3.301 3.304 3.326 3.302 3.313 3.329 3.596 3.327 3.289 3.313 3.333 3.336 3.324 3.302 2.997
# coordination-number N 3.178 3.179 3.178 3.178
# coordination-number Ti 7.462
# coordination-number O 2.002 1.035
# diagonal-C6 C 24.26 24.05 23.91 23.94 24.15 24.38 24.01 20.41 23.97 24.15 24.26 24.00 24.24 24.28 24.04 20.30 24.59 24.28 24.09 23.91 23.97 24.24 24.25 23.98 23.91 24.08 24.27 24.58 20.43 24.04 24.27 24.24 24.01 24.27 24.15 23.98 20.32 24.01 24.39 24.15 23.94 23.91 24.04 24.27 25.68
# diagonal-C6 N 15.60 15.60 15.60 15.60
# diagonal-C6 Ti 321.59
# diagonal-C6 O 10.41 12.78
EvdW_6 =   -0.039676
EvdW_8 =   -0.031890

-------- Electronic minimization -----------
	Linear fluid (dielectric constant: 78.4, screening length: 8.12261 Bohr) occupying 0.727841 of unit cell:	Completed after 6 iterations at t[s]:  14023.28
	FillingsUpdate:  mu: -0.163083954  nElectrons: 224.000000  magneticMoment: [ Abs: 0.00000  Tot: +0.00000 ]
ElecMinimize: Iter:   0  F: -387.522158530606930  |grad|_K:  5.425e-07  alpha:  1.000e+00
	Linear fluid (dielectric constant: 78.4, screening length: 8.12261 Bohr) occupying 0.727836 of unit cell:	Completed after 7 iterations at t[s]:  14125.68
	Linear fluid (dielectric constant: 78.4, screening length: 8.12261 Bohr) occupying 0.727838 of unit cell:	Completed after 3 iterations at t[s]:  14163.38
	FillingsUpdate:  mu: -0.162942382  nElectrons: 224.000000  magneticMoment: [ Abs: 0.00000  Tot: +0.00000 ]
	SubspaceRotationAdjust: set factor to 0.455
ElecMinimize: Iter:   1  F: -387.522198006723954  |grad|_K:  2.969e-07  alpha:  6.371e-01  linmin:  2.433e-05  t[s]:  14213.22
	Linear fluid (dielectric constant: 78.4, screening length: 8.12261 Bohr) occupying 0.727858 of unit cell:	Completed after 4 iterations at t[s]:  14257.23
	Linear fluid (dielectric constant: 78.4, screening length: 8.12261 Bohr) occupying 0.727853 of unit cell:	Completed after 2 iterations at t[s]:  14294.46
	FillingsUpdate:  mu: -0.163085429  nElectrons: 224.000000  magneticMoment: [ Abs: 0.00000  Tot: +0.00000 ]
	SubspaceRotationAdjust: set factor to 0.41
ElecMinimize: Iter:   2  F: -387.522206675089421  |grad|_K:  1.879e-07  alpha:  4.712e-01  linmin:  3.719e-07  t[s]:  14344.34
	Linear fluid (dielectric constant: 78.4, screening length: 8.12261 Bohr) occupying 0.727864 of unit cell:	Completed after 2 iterations at t[s]:  14387.40
	Linear fluid (dielectric constant: 78.4, screening length: 8.12261 Bohr) occupying 0.727865 of unit cell:	Completed after 1 iterations at t[s]:  14423.95
	FillingsUpdate:  mu: -0.163052969  nElectrons: 224.000000  magneticMoment: [ Abs: 0.00000  Tot: +0.00000 ]
	SubspaceRotationAdjust: set factor to 0.445
[...]
disp C   0.000000000000000   0.000000000000000   0.000000000000000
disp C   0.000000000000000   0.000000000000000   0.000000000000000
disp C   0.000000000000000   0.000000000000000   0.000000000000000
disp C   0.000000000000000   0.000000000000000   0.000000000000000
disp C   0.000000000000000   0.000000000000000   0.000000000000000
disp C   0.000000000000000   0.000000000000000   0.000000000000000
disp C   0.000000000000000   0.000000000000000   0.000000000000000
disp C   0.000000000000000   0.000000000000000   0.000000000000000
disp C   0.000000000000000   0.000000000000000   0.000000000000000
disp C   0.000000000000000   0.000000000000000   0.000000000000000
disp C   0.000000000000000   0.000000000000000   0.000000000000000
disp C   0.000000000000000   0.000000000000000   0.000000000000000
disp C   0.000000000000000   0.000000000000000   0.000000000000000
disp C   0.000000000000000   0.000000000000000   0.000000000000000
disp C   0.000000000000000   0.000000000000000   0.000000000000000
disp C   0.006464441455256  -0.000018104809453  -0.000589425903280
disp N   0.000000000000000   0.000000000000000   0.000000000000000
disp N   0.000000000000000   0.000000000000000   0.000000000000000
disp N   0.000000000000000   0.000000000000000   0.000000000000000
disp N   0.000000000000000   0.000000000000000   0.000000000000000
disp Ti   0.000000000000000   0.000000000000000   0.000000000000000
disp O  -0.000385732974979  -0.000113606108935  -0.000946283326052
disp O  -0.001021033729997   0.000597016604719  -0.000445784750654

Real mode 4:
Frequency: 0.001844 Eh [ 405 cm^-1 ]
Degeneracy: 1 of 1
IR intensity: 0.1159 e^2/amu [ 113.0 km/mol ]
Displacements:
disp C   0.000000000000000   0.000000000000000   0.000000000000000
disp C   0.000000000000000   0.000000000000000   0.000000000000000
disp C   0.000000000000000   0.000000000000000   0.000000000000000
disp C   0.000000000000000   0.000000000000000   0.000000000000000
disp C   0.000000000000000   0.000000000000000   0.000000000000000
disp C   0.000000000000000   0.000000000000000   0.000000000000000
disp C   0.000000000000000   0.000000000000000   0.000000000000000
disp C   0.000000000000000   0.000000000000000   0.000000000000000
disp C   0.000000000000000   0.000000000000000   0.000000000000000
disp C   0.000000000000000   0.000000000000000   0.000000000000000
disp C   0.000000000000000   0.000000000000000   0.000000000000000
disp C   0.000000000000000   0.000000000000000   0.000000000000000
disp C   0.000000000000000   0.000000000000000   0.000000000000000
disp C   0.000000000000000   0.000000000000000   0.000000000000000
disp C   0.000000000000000   0.000000000000000   0.000000000000000
disp C   0.000000000000000   0.000000000000000   0.000000000000000
disp C   0.000000000000000   0.000000000000000   0.000000000000000
disp C   0.000000000000000   0.000000000000000   0.000000000000000
disp C   0.000000000000000   0.000000000000000   0.000000000000000
disp C   0.000000000000000   0.000000000000000   0.000000000000000
disp C   0.000000000000000   0.000000000000000   0.000000000000000
disp C   0.000000000000000   0.000000000000000   0.000000000000000
disp C   0.000000000000000   0.000000000000000   0.000000000000000
disp C   0.000000000000000   0.000000000000000   0.000000000000000
disp C   0.000000000000000   0.000000000000000   0.000000000000000
disp C   0.000000000000000   0.000000000000000   0.000000000000000
disp C   0.000000000000000   0.000000000000000   0.000000000000000
disp C   0.000000000000000   0.000000000000000   0.000000000000000
disp C   0.000000000000000   0.000000000000000   0.000000000000000
disp C   0.000000000000000   0.000000000000000   0.000000000000000
disp C   0.000000000000000   0.000000000000000   0.000000000000000
disp C   0.000000000000000   0.000000000000000   0.000000000000000
disp C   0.000000000000000   0.000000000000000   0.000000000000000
disp C   0.000000000000000   0.000000000000000   0.000000000000000
disp C   0.000000000000000   0.000000000000000   0.000000000000000
disp C   0.000000000000000   0.000000000000000   0.000000000000000
disp C   0.000000000000000   0.000000000000000   0.000000000000000
disp C   0.000000000000000   0.000000000000000   0.000000000000000
disp C   0.000000000000000   0.000000000000000   0.000000000000000
disp C   0.000000000000000   0.000000000000000   0.000000000000000
disp C   0.000000000000000   0.000000000000000   0.000000000000000
disp C   0.000000000000000   0.000000000000000   0.000000000000000
disp C   0.000000000000000   0.000000000000000   0.000000000000000
disp C   0.000000000000000   0.000000000000000   0.000000000000000
disp C  -0.001071441601855  -0.002738132365416  -0.002469141795125
disp N   0.000000000000000   0.000000000000000   0.000000000000000
disp N   0.000000000000000   0.000000000000000   0.000000000000000
disp N   0.000000000000000   0.000000000000000   0.000000000000000
disp N   0.000000000000000   0.000000000000000   0.000000000000000
disp Ti   0.000000000000000   0.000000000000000   0.000000000000000
disp O  -0.001376225311722  -0.002204107074262  -0.003504328796752
disp O   0.000336913779372  -0.000840253174164  -0.001835355054326

Real mode 5:
Frequency: 0.003189 Eh [ 700 cm^-1 ]
Degeneracy: 1 of 1
IR intensity: 0.3933 e^2/amu [ 383.4 km/mol ]
Displacements:
disp C   0.000000000000000   0.000000000000000   0.000000000000000
disp C   0.000000000000000   0.000000000000000   0.000000000000000
disp C   0.000000000000000   0.000000000000000   0.000000000000000
disp C   0.000000000000000   0.000000000000000   0.000000000000000
disp C   0.000000000000000   0.000000000000000   0.000000000000000
disp C   0.000000000000000   0.000000000000000   0.000000000000000
disp C   0.000000000000000   0.000000000000000   0.000000000000000
disp C   0.000000000000000   0.000000000000000   0.000000000000000
disp C   0.000000000000000   0.000000000000000   0.000000000000000
disp C   0.000000000000000   0.000000000000000   0.000000000000000
disp C   0.000000000000000   0.000000000000000   0.000000000000000
disp C   0.000000000000000   0.000000000000000   0.000000000000000
disp C   0.000000000000000   0.000000000000000   0.000000000000000
disp C   0.000000000000000   0.000000000000000   0.000000000000000
disp C   0.000000000000000   0.000000000000000   0.000000000000000
disp C   0.000000000000000   0.000000000000000   0.000000000000000
disp C   0.000000000000000   0.000000000000000   0.000000000000000
disp C   0.000000000000000   0.000000000000000   0.000000000000000
disp C   0.000000000000000   0.000000000000000   0.000000000000000
disp C   0.000000000000000   0.000000000000000   0.000000000000000
disp C   0.000000000000000   0.000000000000000   0.000000000000000
disp C   0.000000000000000   0.000000000000000   0.000000000000000
disp C   0.000000000000000   0.000000000000000   0.000000000000000
disp C   0.000000000000000   0.000000000000000   0.000000000000000
disp C   0.000000000000000   0.000000000000000   0.000000000000000
disp C   0.000000000000000   0.000000000000000   0.000000000000000
disp C   0.000000000000000   0.000000000000000   0.000000000000000
disp C   0.000000000000000   0.000000000000000   0.000000000000000
disp C   0.000000000000000   0.000000000000000   0.000000000000000
disp C   0.000000000000000   0.000000000000000   0.000000000000000
disp C   0.000000000000000   0.000000000000000   0.000000000000000
disp C   0.000000000000000   0.000000000000000   0.000000000000000
disp C   0.000000000000000   0.000000000000000   0.000000000000000
disp C   0.000000000000000   0.000000000000000   0.000000000000000
disp C   0.000000000000000   0.000000000000000   0.000000000000000
disp C   0.000000000000000   0.000000000000000   0.000000000000000
disp C   0.000000000000000   0.000000000000000   0.000000000000000
disp C   0.000000000000000   0.000000000000000   0.000000000000000
disp C   0.000000000000000   0.000000000000000   0.000000000000000
disp C   0.000000000000000   0.000000000000000   0.000000000000000
disp C   0.000000000000000   0.000000000000000   0.000000000000000
disp C   0.000000000000000   0.000000000000000   0.000000000000000
disp C   0.000000000000000   0.000000000000000   0.000000000000000
disp C   0.000000000000000   0.000000000000000   0.000000000000000
disp C   0.000173251454765   0.000931445679808   0.002952641781848
disp N   0.000000000000000   0.000000000000000   0.000000000000000
disp N   0.000000000000000   0.000000000000000   0.000000000000000
disp N   0.000000000000000   0.000000000000000   0.000000000000000
disp N   0.000000000000000   0.000000000000000   0.000000000000000
disp Ti   0.000000000000000   0.000000000000000   0.000000000000000
disp O   0.000227137419284   0.001780928813746  -0.003470811027051
disp O  -0.000012266053237  -0.003036979793773   0.001604883235272

Real mode 6:
Frequency: 0.004785 Eh [ 1050 cm^-1 ]
Degeneracy: 1 of 1
IR intensity: 0.0586 e^2/amu [ 57.1 km/mol ]
Displacements:
disp C   0.000000000000000   0.000000000000000   0.000000000000000
disp C   0.000000000000000   0.000000000000000   0.000000000000000
disp C   0.000000000000000   0.000000000000000   0.000000000000000
disp C   0.000000000000000   0.000000000000000   0.000000000000000
disp C   0.000000000000000   0.000000000000000   0.000000000000000
disp C   0.000000000000000   0.000000000000000   0.000000000000000
disp C   0.000000000000000   0.000000000000000   0.000000000000000
disp C   0.000000000000000   0.000000000000000   0.000000000000000
disp C   0.000000000000000   0.000000000000000   0.000000000000000
disp C   0.000000000000000   0.000000000000000   0.000000000000000
disp C   0.000000000000000   0.000000000000000   0.000000000000000
disp C   0.000000000000000   0.000000000000000   0.000000000000000
disp C   0.000000000000000   0.000000000000000   0.000000000000000
disp C   0.000000000000000   0.000000000000000   0.000000000000000
disp C   0.000000000000000   0.000000000000000   0.000000000000000
disp C   0.000000000000000   0.000000000000000   0.000000000000000
disp C   0.000000000000000   0.000000000000000   0.000000000000000
disp C   0.000000000000000   0.000000000000000   0.000000000000000
disp C   0.000000000000000   0.000000000000000   0.000000000000000
disp C   0.000000000000000   0.000000000000000   0.000000000000000
disp C   0.000000000000000   0.000000000000000   0.000000000000000
disp C   0.000000000000000   0.000000000000000   0.000000000000000
disp C   0.000000000000000   0.000000000000000   0.000000000000000
disp C   0.000000000000000   0.000000000000000   0.000000000000000
disp C   0.000000000000000   0.000000000000000   0.000000000000000
disp C   0.000000000000000   0.000000000000000   0.000000000000000
disp C   0.000000000000000   0.000000000000000   0.000000000000000
disp C   0.000000000000000   0.000000000000000   0.000000000000000
disp C   0.000000000000000   0.000000000000000   0.000000000000000
disp C   0.000000000000000   0.000000000000000   0.000000000000000
disp C   0.000000000000000   0.000000000000000   0.000000000000000
disp C   0.000000000000000   0.000000000000000   0.000000000000000
disp C   0.000000000000000   0.000000000000000   0.000000000000000
disp C   0.000000000000000   0.000000000000000   0.000000000000000
disp C   0.000000000000000   0.000000000000000   0.000000000000000
disp C   0.000000000000000   0.000000000000000   0.000000000000000
disp C   0.000000000000000   0.000000000000000   0.000000000000000
disp C   0.000000000000000   0.000000000000000   0.000000000000000
disp C   0.000000000000000   0.000000000000000   0.000000000000000
disp C   0.000000000000000   0.000000000000000   0.000000000000000
disp C   0.000000000000000   0.000000000000000   0.000000000000000
disp C   0.000000000000000   0.000000000000000   0.000000000000000
disp C   0.000000000000000   0.000000000000000   0.000000000000000
disp C   0.000000000000000   0.000000000000000   0.000000000000000
disp C   0.000158103863246  -0.004705297979300  -0.001391838109741
disp N   0.000000000000000   0.000000000000000   0.000000000000000
disp N   0.000000000000000   0.000000000000000   0.000000000000000
disp N   0.000000000000000   0.000000000000000   0.000000000000000
disp N   0.000000000000000   0.000000000000000   0.000000000000000
disp Ti   0.000000000000000   0.000000000000000   0.000000000000000
disp O  -0.000079641438425   0.003877086051403   0.000602211087893
disp O   0.000044403854874  -0.000043838382721   0.000888292242868

Real mode 7:
Frequency: 0.007220 Eh [ 1585 cm^-1 ]
Degeneracy: 1 of 1
IR intensity: 1.7170 e^2/amu [ 1673.9 km/mol ]
Displacements:
disp C   0.000000000000000   0.000000000000000   0.000000000000000
disp C   0.000000000000000   0.000000000000000   0.000000000000000
disp C   0.000000000000000   0.000000000000000   0.000000000000000
disp C   0.000000000000000   0.000000000000000   0.000000000000000
disp C   0.000000000000000   0.000000000000000   0.000000000000000
disp C   0.000000000000000   0.000000000000000   0.000000000000000
disp C   0.000000000000000   0.000000000000000   0.000000000000000
disp C   0.000000000000000   0.000000000000000   0.000000000000000
disp C   0.000000000000000   0.000000000000000   0.000000000000000
disp C   0.000000000000000   0.000000000000000   0.000000000000000
disp C   0.000000000000000   0.000000000000000   0.000000000000000
disp C   0.000000000000000   0.000000000000000   0.000000000000000
disp C   0.000000000000000   0.000000000000000   0.000000000000000
disp C   0.000000000000000   0.000000000000000   0.000000000000000
disp C   0.000000000000000   0.000000000000000   0.000000000000000
disp C   0.000000000000000   0.000000000000000   0.000000000000000
disp C   0.000000000000000   0.000000000000000   0.000000000000000
disp C   0.000000000000000   0.000000000000000   0.000000000000000
disp C   0.000000000000000   0.000000000000000   0.000000000000000
disp C   0.000000000000000   0.000000000000000   0.000000000000000
disp C   0.000000000000000   0.000000000000000   0.000000000000000
disp C   0.000000000000000   0.000000000000000   0.000000000000000
disp C   0.000000000000000   0.000000000000000   0.000000000000000
disp C   0.000000000000000   0.000000000000000   0.000000000000000
disp C   0.000000000000000   0.000000000000000   0.000000000000000
disp C   0.000000000000000   0.000000000000000   0.000000000000000
disp C   0.000000000000000   0.000000000000000   0.000000000000000
disp C   0.000000000000000   0.000000000000000   0.000000000000000
disp C   0.000000000000000   0.000000000000000   0.000000000000000
disp C   0.000000000000000   0.000000000000000   0.000000000000000
disp C   0.000000000000000   0.000000000000000   0.000000000000000
disp C   0.000000000000000   0.000000000000000   0.000000000000000
disp C   0.000000000000000   0.000000000000000   0.000000000000000
disp C   0.000000000000000   0.000000000000000   0.000000000000000
disp C   0.000000000000000   0.000000000000000   0.000000000000000
disp C   0.000000000000000   0.000000000000000   0.000000000000000
disp C   0.000000000000000   0.000000000000000   0.000000000000000
disp C   0.000000000000000   0.000000000000000   0.000000000000000
disp C   0.000000000000000   0.000000000000000   0.000000000000000
disp C   0.000000000000000   0.000000000000000   0.000000000000000
disp C   0.000000000000000   0.000000000000000   0.000000000000000
disp C   0.000000000000000   0.000000000000000   0.000000000000000
disp C   0.000000000000000   0.000000000000000   0.000000000000000
disp C   0.000000000000000   0.000000000000000   0.000000000000000
disp C   0.000037849861121   0.002253092314064  -0.004960190174149
disp N   0.000000000000000   0.000000000000000   0.000000000000000
disp N   0.000000000000000   0.000000000000000   0.000000000000000
disp N   0.000000000000000   0.000000000000000   0.000000000000000
disp N   0.000000000000000   0.000000000000000   0.000000000000000
disp Ti   0.000000000000000   0.000000000000000   0.000000000000000
disp O   0.000001802354327  -0.000022933042165   0.000036889946185
disp O   0.000024065017999  -0.001506915937909   0.003119618161972

Vibrational free energy components at T = 298 K:
	ZPE:          0.010471
	Evib:         0.012241
	TSvib:        0.002792
	Avib:         0.009449


Dumping 'jdft.n_up' ... done
Dumping 'jdft.n_dn' ... done
Dumping 'jdft.tau_up' ... done
Dumping 'jdft.tau_dn' ... done
Dumping 'jdft.eigenvals' ... done
Dumping 'jdft.eigStats' ... 
	eMin: -2.292305 at state 0 ( [ +0.000000 +0.000000 +0.000000 ] spin 1 )
	HOMO: -0.168880 at state 8 ( [ -0.333333 -0.333333 +0.000000 ] spin 1 )
	mu  : -0.163161
	LUMO: -0.157632 at state 4 ( [ +0.333333 +0.333333 +0.000000 ] spin 1 )
	eMax: +0.016255 at state 17 ( [ -0.333333 -0.333333 +0.000000 ] spin -1 )
	HOMO-LUMO gap: +0.011248
	Optical gap  : +0.011248 at state 8 ( [ -0.333333 -0.333333 +0.000000 ] spin 1 )
Dumping 'jdft.kPts' ... done
Dumping 'jdft.dosUp' ... done.
Dumping 'jdft.dosDn' ... done.
End date and time: Thu Nov 10 00:54:21 2022  (Duration: 0-5:55:42.09)
Done!

PROFILER:             augmentDensityGrid     0.872269 +/-     1.059828 s, 1216 calls,   1060.679447 s total
PROFILER:         augmentDensityGridGrad     0.522925 +/-     0.585100 s,  668 calls,    349.314021 s total
PROFILER:        augmentDensitySpherical     0.000471 +/-     0.000564 s, 1216 calls,      0.572849 s total
PROFILER:    augmentDensitySphericalGrad     0.000474 +/-     0.000594 s,  904 calls,      0.428739 s total
PROFILER:                 augmentOverlap     1.672609 +/-     2.207909 s, 2340 calls,   3913.905961 s total
PROFILER:        ColumnBundle::randomize     0.004960 +/-     0.000000 s,    1 calls,      0.004960 s total
PROFILER:                     diagouterI    16.302038 +/-     3.549274 s,  307 calls,   5004.725591 s total
PROFILER:              EdensityAndVscloc     5.406538 +/-     4.205803 s,  305 calls,   1648.994170 s total
PROFILER:                     EnlAndGrad     0.001400 +/-     0.001954 s, 1216 calls,      1.702068 s total
PROFILER:            ExCorrCommunication     0.059023 +/-     0.061127 s, 1942 calls,    114.622650 s total
PROFILER:               ExCorrFunctional     0.021675 +/-     0.004279 s,  336 calls,      7.282726 s total
PROFILER:                    ExCorrTotal     0.611039 +/-     0.131398 s,  336 calls,    205.309246 s total
PROFILER:                   Idag_DiagV_I    26.971051 +/-    11.678209 s,  216 calls,   5825.746919 s total
PROFILER:                    initWeights     1.795766 +/-     0.000000 s,    1 calls,      1.795766 s total
PROFILER:                    inv(matrix)     0.001851 +/-     0.001050 s,  233 calls,      0.431368 s total
PROFILER:            matrix::diagonalize     0.008702 +/-     0.005638 s,  503 calls,      4.376867 s total
PROFILER:                    matrix::set     0.000003 +/-     0.000005 s, 28018 calls,      0.072579 s total
PROFILER:            orthoMatrix(matrix)     0.001441 +/-     0.000846 s,  283 calls,      0.407750 s total
PROFILER:     RadialFunctionR::transform     0.003805 +/-     0.022152 s,  141 calls,      0.536526 s total
PROFILER:                    reduceKmesh     0.000000 +/-     0.000000 s,    1 calls,      0.000000 s total
PROFILER:   VanDerWaalsD3::energyAndGrad     0.032172 +/-     0.003330 s,   21 calls,      0.675609 s total
PROFILER:               WavefunctionDrag    26.594444 +/-     0.750236 s,   10 calls,    265.944442 s total
PROFILER:                            Y*M     0.751844 +/-     0.875760 s, 4429 calls,   3329.918526 s total
PROFILER:                          Y1^Y2     0.748628 +/-     0.876203 s, 3202 calls,   2397.107934 s total

MEMUSAGE:                   ColumnBundle     1.333771 GB
MEMUSAGE:        complexScalarFieldTilde     0.049438 GB
MEMUSAGE:                    IndexArrays     0.023178 GB
MEMUSAGE:                         matrix     0.020675 GB
MEMUSAGE:                           misc     0.050872 GB
MEMUSAGE:                    ScalarField     0.395508 GB
MEMUSAGE:               ScalarFieldTilde     0.262436 GB
MEMUSAGE:                          Total     1.650425 GB
