
*************** JDFTx 1.7.0 (git hash 5f12716a) ***************

Start date and time: Thu Jul 21 15:44:47 2022
Executable /home/nisi6161/jdftx_alpine/build/jdftx with command-line: -i in
Running on hosts (process indices):  c3cpu-a2-u15-1.rc.int.colorado.edu (0-17)
Divided in process groups (process indices):  0 (0)  1 (1)  2 (2)  3 (3)  4 (4)  5 (5)  6 (6)  7 (7)  8 (8)  9 (9)  10 (10)  11 (11)  12 (12)  13 (13)  14 (14)  15 (15)  16 (16)  17 (17)
Resource initialization completed at t[s]:      0.00
Run totals: 18 processes, 64 threads, 0 GPUs


Input parsed successfully to the following command list (including defaults):

basis kpoint-dependent
converge-empty-states yes
coords-type Cartesian
core-overlap-check none
coulomb-interaction Periodic
davidson-band-ratio 1.1
density-of-states Etol 1.000000e-06 Esigma 1.000000e-03 \
		Complete \
	Total \
	OrthoOrbital C 1   s \
	OrthoOrbital C 1   p \
	OrthoOrbital C 1   px \
	OrthoOrbital C 1   py \
	OrthoOrbital C 1   pz \
	OrthoOrbital C 2   s \
	OrthoOrbital C 2   p \
	OrthoOrbital C 2   px \
	OrthoOrbital C 2   py \
	OrthoOrbital C 2   pz \
	OrthoOrbital C 3   s \
	OrthoOrbital C 3   p \
	OrthoOrbital C 3   px \
	OrthoOrbital C 3   py \
	OrthoOrbital C 3   pz \
	OrthoOrbital C 4   s \
	OrthoOrbital C 4   p \
	OrthoOrbital C 4   px \
	OrthoOrbital C 4   py \
	OrthoOrbital C 4   pz \
	OrthoOrbital C 5   s \
	OrthoOrbital C 5   p \
	OrthoOrbital C 5   px \
	OrthoOrbital C 5   py \
	OrthoOrbital C 5   pz \
	OrthoOrbital C 6   s \
	OrthoOrbital C 6   p \
	OrthoOrbital C 6   px \
	OrthoOrbital C 6   py \
	OrthoOrbital C 6   pz \
	OrthoOrbital C 7   s \
	OrthoOrbital C 7   p \
	OrthoOrbital C 7   px \
	OrthoOrbital C 7   py \
	OrthoOrbital C 7   pz \
	OrthoOrbital C 8   s \
	OrthoOrbital C 8   p \
	OrthoOrbital C 8   px \
	OrthoOrbital C 8   py \
	OrthoOrbital C 8   pz \
	OrthoOrbital C 9   s \
	OrthoOrbital C 9   p \
	OrthoOrbital C 9   px \
	OrthoOrbital C 9   py \
	OrthoOrbital C 9   pz \
	OrthoOrbital C 10   s \
	OrthoOrbital C 10   p \
	OrthoOrbital C 10   px \
	OrthoOrbital C 10   py \
	OrthoOrbital C 10   pz \
	OrthoOrbital C 11   s \
	OrthoOrbital C 11   p \
	OrthoOrbital C 11   px \
	OrthoOrbital C 11   py \
	OrthoOrbital C 11   pz \
	OrthoOrbital C 12   s \
	OrthoOrbital C 12   p \
	OrthoOrbital C 12   px \
	OrthoOrbital C 12   py \
	OrthoOrbital C 12   pz \
	OrthoOrbital C 13   s \
	OrthoOrbital C 13   p \
	OrthoOrbital C 13   px \
	OrthoOrbital C 13   py \
	OrthoOrbital C 13   pz \
	OrthoOrbital C 14   s \
	OrthoOrbital C 14   p \
	OrthoOrbital C 14   px \
	OrthoOrbital C 14   py \
	OrthoOrbital C 14   pz \
	OrthoOrbital C 15   s \
	OrthoOrbital C 15   p \
	OrthoOrbital C 15   px \
	OrthoOrbital C 15   py \
	OrthoOrbital C 15   pz \
	OrthoOrbital C 16   s \
	OrthoOrbital C 16   p \
	OrthoOrbital C 16   px \
	OrthoOrbital C 16   py \
	OrthoOrbital C 16   pz \
	OrthoOrbital C 17   s \
	OrthoOrbital C 17   p \
	OrthoOrbital C 17   px \
	OrthoOrbital C 17   py \
	OrthoOrbital C 17   pz \
	OrthoOrbital C 18   s \
	OrthoOrbital C 18   p \
	OrthoOrbital C 18   px \
	OrthoOrbital C 18   py \
	OrthoOrbital C 18   pz \
	OrthoOrbital C 19   s \
	OrthoOrbital C 19   p \
	OrthoOrbital C 19   px \
	OrthoOrbital C 19   py \
	OrthoOrbital C 19   pz \
	OrthoOrbital C 20   s \
	OrthoOrbital C 20   p \
	OrthoOrbital C 20   px \
	OrthoOrbital C 20   py \
	OrthoOrbital C 20   pz \
	OrthoOrbital C 21   s \
	OrthoOrbital C 21   p \
	OrthoOrbital C 21   px \
	OrthoOrbital C 21   py \
	OrthoOrbital C 21   pz \
	OrthoOrbital C 22   s \
	OrthoOrbital C 22   p \
	OrthoOrbital C 22   px \
	OrthoOrbital C 22   py \
	OrthoOrbital C 22   pz \
	OrthoOrbital C 23   s \
	OrthoOrbital C 23   p \
	OrthoOrbital C 23   px \
	OrthoOrbital C 23   py \
	OrthoOrbital C 23   pz \
	OrthoOrbital C 24   s \
	OrthoOrbital C 24   p \
	OrthoOrbital C 24   px \
	OrthoOrbital C 24   py \
	OrthoOrbital C 24   pz \
	OrthoOrbital C 25   s \
	OrthoOrbital C 25   p \
	OrthoOrbital C 25   px \
	OrthoOrbital C 25   py \
	OrthoOrbital C 25   pz \
	OrthoOrbital C 26   s \
	OrthoOrbital C 26   p \
	OrthoOrbital C 26   px \
	OrthoOrbital C 26   py \
	OrthoOrbital C 26   pz \
	OrthoOrbital C 27   s \
	OrthoOrbital C 27   p \
	OrthoOrbital C 27   px \
	OrthoOrbital C 27   py \
	OrthoOrbital C 27   pz \
	OrthoOrbital C 28   s \
	OrthoOrbital C 28   p \
	OrthoOrbital C 28   px \
	OrthoOrbital C 28   py \
	OrthoOrbital C 28   pz \
	OrthoOrbital C 29   s \
	OrthoOrbital C 29   p \
	OrthoOrbital C 29   px \
	OrthoOrbital C 29   py \
	OrthoOrbital C 29   pz \
	OrthoOrbital C 30   s \
	OrthoOrbital C 30   p \
	OrthoOrbital C 30   px \
	OrthoOrbital C 30   py \
	OrthoOrbital C 30   pz \
	OrthoOrbital C 31   s \
	OrthoOrbital C 31   p \
	OrthoOrbital C 31   px \
	OrthoOrbital C 31   py \
	OrthoOrbital C 31   pz \
	OrthoOrbital C 32   s \
	OrthoOrbital C 32   p \
	OrthoOrbital C 32   px \
	OrthoOrbital C 32   py \
	OrthoOrbital C 32   pz \
	OrthoOrbital C 33   s \
	OrthoOrbital C 33   p \
	OrthoOrbital C 33   px \
	OrthoOrbital C 33   py \
	OrthoOrbital C 33   pz \
	OrthoOrbital C 34   s \
	OrthoOrbital C 34   p \
	OrthoOrbital C 34   px \
	OrthoOrbital C 34   py \
	OrthoOrbital C 34   pz \
	OrthoOrbital C 35   s \
	OrthoOrbital C 35   p \
	OrthoOrbital C 35   px \
	OrthoOrbital C 35   py \
	OrthoOrbital C 35   pz \
	OrthoOrbital C 36   s \
	OrthoOrbital C 36   p \
	OrthoOrbital C 36   px \
	OrthoOrbital C 36   py \
	OrthoOrbital C 36   pz \
	OrthoOrbital C 37   s \
	OrthoOrbital C 37   p \
	OrthoOrbital C 37   px \
	OrthoOrbital C 37   py \
	OrthoOrbital C 37   pz \
	OrthoOrbital C 38   s \
	OrthoOrbital C 38   p \
	OrthoOrbital C 38   px \
	OrthoOrbital C 38   py \
	OrthoOrbital C 38   pz \
	OrthoOrbital C 39   s \
	OrthoOrbital C 39   p \
	OrthoOrbital C 39   px \
	OrthoOrbital C 39   py \
	OrthoOrbital C 39   pz \
	OrthoOrbital C 40   s \
	OrthoOrbital C 40   p \
	OrthoOrbital C 40   px \
	OrthoOrbital C 40   py \
	OrthoOrbital C 40   pz \
	OrthoOrbital C 41   s \
	OrthoOrbital C 41   p \
	OrthoOrbital C 41   px \
	OrthoOrbital C 41   py \
	OrthoOrbital C 41   pz \
	OrthoOrbital C 42   s \
	OrthoOrbital C 42   p \
	OrthoOrbital C 42   px \
	OrthoOrbital C 42   py \
	OrthoOrbital C 42   pz \
	OrthoOrbital C 43   s \
	OrthoOrbital C 43   p \
	OrthoOrbital C 43   px \
	OrthoOrbital C 43   py \
	OrthoOrbital C 43   pz \
	OrthoOrbital C 44   s \
	OrthoOrbital C 44   p \
	OrthoOrbital C 44   px \
	OrthoOrbital C 44   py \
	OrthoOrbital C 44   pz \
	OrthoOrbital C 45   s \
	OrthoOrbital C 45   p \
	OrthoOrbital C 45   px \
	OrthoOrbital C 45   py \
	OrthoOrbital C 45   pz \
	OrthoOrbital N 1   s \
	OrthoOrbital N 1   p \
	OrthoOrbital N 1   px \
	OrthoOrbital N 1   py \
	OrthoOrbital N 1   pz \
	OrthoOrbital N 2   s \
	OrthoOrbital N 2   p \
	OrthoOrbital N 2   px \
	OrthoOrbital N 2   py \
	OrthoOrbital N 2   pz \
	OrthoOrbital N 3   s \
	OrthoOrbital N 3   p \
	OrthoOrbital N 3   px \
	OrthoOrbital N 3   py \
	OrthoOrbital N 3   pz \
	OrthoOrbital N 4   s \
	OrthoOrbital N 4   p \
	OrthoOrbital N 4   px \
	OrthoOrbital N 4   py \
	OrthoOrbital N 4   pz \
	OrthoOrbital Ti 1   s \
	OrthoOrbital Ti 1   p \
	OrthoOrbital Ti 1   px \
	OrthoOrbital Ti 1   py \
	OrthoOrbital Ti 1   pz \
	OrthoOrbital Ti 1   d \
	OrthoOrbital Ti 1   dxy \
	OrthoOrbital Ti 1   dyz \
	OrthoOrbital Ti 1   dz2 \
	OrthoOrbital Ti 1   dxz \
	OrthoOrbital Ti 1   dx2-y2 \
	OrthoOrbital O 1   s \
	OrthoOrbital O 1   p \
	OrthoOrbital O 1   px \
	OrthoOrbital O 1   py \
	OrthoOrbital O 1   pz \
	OrthoOrbital O 2   s \
	OrthoOrbital O 2   p \
	OrthoOrbital O 2   px \
	OrthoOrbital O 2   py \
	OrthoOrbital O 2   pz \
	OrthoOrbital H 1   s \
	OrthoOrbital O 1   s \
	OrthoOrbital O 1   p \
	OrthoOrbital O 1   px \
	OrthoOrbital O 1   py \
	OrthoOrbital O 1   pz \
	OrthoOrbital H 1   s \
	OrthoOrbital H 2   s
dump End ElecDensity KEdensity BandEigs EigStats RhoAtom DOS Kpoints
dump Ionic State IonicPositions Lattice EigStats Ecomponents
dump 
dump 
dump 
dump 
dump 
dump 
dump 
dump 
dump-name jdft.$VAR
elec-cutoff 20
elec-eigen-algo Davidson
elec-ex-corr gga-PBE
elec-initial-magnetization 0.000000 no
elec-n-bands 140
elec-smearing Fermi 0.001
electronic-minimize  \
	dirUpdateScheme      FletcherReeves \
	linminMethod         DirUpdateRecommended \
	nIterations          100 \
	history              15 \
	knormThreshold       0 \
	energyDiffThreshold  1e-07 \
	nEnergyDiff          2 \
	alphaTstart          1 \
	alphaTmin            1e-10 \
	updateTestStepSize   yes \
	alphaTreduceFactor   0.1 \
	alphaTincreaseFactor 3 \
	nAlphaAdjustMax      3 \
	wolfeEnergy          0.0001 \
	wolfeGradient        0.9 \
	fdTest               no
exchange-regularization WignerSeitzTruncated
fluid LinearPCM 298.000000 1.013250
fluid-anion F- 0.5 MeanFieldLJ \
	epsBulk 1 \
	pMol 0 \
	epsInf 1 \
	Pvap 0 \
	sigmaBulk 0 \
	Rvdw 2.24877 \
	Res 0 \
	tauNuc 343133
fluid-cation Na+ 0.5 MeanFieldLJ \
	epsBulk 1 \
	pMol 0 \
	epsInf 1 \
	Pvap 0 \
	sigmaBulk 0 \
	Rvdw 2.19208 \
	Res 0 \
	tauNuc 343133
fluid-ex-corr lda-TF lda-PZ
fluid-gummel-loop 10 1.000000e-05
fluid-minimize  \
	dirUpdateScheme      PolakRibiere \
	linminMethod         DirUpdateRecommended \
	nIterations          400 \
	history              15 \
	knormThreshold       1e-11 \
	energyDiffThreshold  0 \
	nEnergyDiff          2 \
	alphaTstart          1 \
	alphaTmin            1e-10 \
	updateTestStepSize   yes \
	alphaTreduceFactor   0.1 \
	alphaTincreaseFactor 3 \
	nAlphaAdjustMax      6 \
	wolfeEnergy          0.0001 \
	wolfeGradient        0.9 \
	fdTest               no
fluid-solvent H2O 55.338 ScalarEOS \
	epsBulk 78.4 \
	pMol 0.92466 \
	epsInf 1.77 \
	Pvap 1.06736e-10 \
	sigmaBulk 4.62e-05 \
	Rvdw 2.61727 \
	Res 1.42 \
	tauNuc 343133 \
	poleEl 15 7 1
forces-output-coords Positions
initial-state jdft.$VAR
ion C   0.076186400297465  -0.003451380461316  43.344510976328941 1
ion C  21.132134831029390   3.964055742574101  43.365475366405072 1
ion C  18.786752695386305   7.970406701746747  43.389862328169912 1
ion C  -6.964147897987748  11.968934017539775  43.382919202651053 1
ion C  -9.295057140269389  15.978567013262142  43.369432806335958 1
ion C   4.763517943287296   0.108481253905149   0.106030306841196 1
ion C   2.375424120451613   4.108417552296665   0.129746438732026 1
ion C  -0.027122732819199   7.951365628209617   0.137593940394837 1
ion C  -2.349687895083981  11.964469622125577  43.379581940366151 1
ion C  -4.647787092197428  15.988863579702953  43.361626565845420 1
ion C   9.453344942049188   0.010443885800431  43.332780492196683 1
ion C   7.166319676816964   4.118329935000464   0.144745740225923 1
ion C   0.041890341338840  15.905215769957376   0.083601390249648 1
ion C   2.426623826000036  19.857045485504702  43.343217592547731 1
ion C  11.841712932062388   3.953750538153665  43.356559626389860 1
ion C   9.555110129612569   7.937148298377889   0.160226495549843 1
ion C   4.749362134170200  15.761135399841534   0.151501650538355 1
ion C   7.079582951682754  19.857750869037403  43.360504620462144 1
ion C  16.487725489942981   3.939425926864372  43.364125200071264 1
ion C  14.180084850415163   7.961821231484111  43.375945287215607 1
ion C  11.853051965176617  11.960481497148868  43.396417550524617 1
ion C   9.447303015838468  15.891003520507262   0.119953644680881 1
ion C   0.064990128464740   2.681164878135688   0.092367963592566 1
ion C  -2.335226885381465   6.622967887208074  43.386757559470333 1
ion C  -4.656953297832322  10.624554693476199  43.390311566843209 1
ion C  -6.968572763536218  14.645340781699906  43.373912754266442 1
ion C  -9.294653249230004  18.665602405112136  43.355832170051585 1
ion C   4.766896217979997   2.824761577732807   0.135011210456372 1
ion C  -0.032742858602762  10.650766793338017   0.125273910684293 1
ion C  -2.324887286463738  14.636764443378569  43.360836685184090 1
ion C  -4.642606070522001  18.674266646781533  43.350451122896303 1
ion C   9.472399496797731   2.690313356602915   0.089806912343860 1
ion C   2.348040668685851  14.483196201292168   0.133359267560871 1
ion C   0.061407164982873  18.583736676926712  43.329262522565166 1
ion C  14.164916287219910   2.599809339054755  43.351589120443350 1
ion C  11.871190287870309   6.624915731976639  43.373594354346316 1
ion C   9.546266632963565  10.631546463878776   0.179807198552890 1
ion C   7.135859897774983  14.461515713653805   0.175899402184162 1
ion C   4.753614905408844  18.477940470430063   0.110832431497258 1
ion C  18.813025830042953   2.604010865858152  43.361622179321202 1
ion C  16.486093413456480   6.616838932532827  43.375342517934833 1
ion C  14.170993441100826  10.632510750319335  43.383800315413254 1
ion C  11.822395237845127  14.634337047152227  43.384643178408282 1
ion C   9.437482448143070  18.576776946542754  43.353214345574216 1
ion C   4.252889284483591  10.028804153465941   5.420886848681809 1
ion N   2.240769979631850  11.899615004717676   0.193173965498954 1
ion N   7.252853311775910  11.858269230644739   0.278103964510017 1
ion N   2.262260726860358   6.710872197231704   0.194526271969377 1
ion N   7.281640719172504   6.700800887052308   0.230919391919731 1
ion Ti   4.705643791371928   9.298375825220290   1.639848643890838 1
ion O   3.498666096708808  10.766899945184509   7.611155622543889 1
ion O   6.202310380282174   8.633108585476727   5.119550893350945 1
ion O  -0.117138317167918  13.718444204426058   6.888289310662458 1
ion H   1.901340592213558  11.999219141024925   7.373765725092851 1
ion H   0.270146019222672  15.409982966545401   7.561429038759301 1
ion H  -1.714230718924622  13.211793167346583   7.707157470806769 1
ion-species /projects/musgravc/apps/jdftx-1.6.0/build/pseudopotentials/GBRV_v1.5/$ID_pbe_v1.uspp
ion-species /projects/musgravc/apps/jdftx-1.6.0/build/pseudopotentials/GBRV_v1.5/$ID_pbe_v1.2.uspp
ion-species /projects/musgravc/apps/jdftx-1.6.0/build/pseudopotentials/GBRV_v1.5/$ID_pbe_v1.4.uspp
ion-species /projects/musgravc/apps/jdftx-1.6.0/build/pseudopotentials/GBRV_v1.5/$ID_pbe_v1.5.uspp
ion-width Ecut
ionic-minimize  \
	dirUpdateScheme      L-BFGS \
	linminMethod         DirUpdateRecommended \
	nIterations          100 \
	history              15 \
	knormThreshold       0.0001 \
	energyDiffThreshold  1e-06 \
	nEnergyDiff          2 \
	alphaTstart          1 \
	alphaTmin            1e-10 \
	updateTestStepSize   yes \
	alphaTreduceFactor   0.1 \
	alphaTincreaseFactor 3 \
	nAlphaAdjustMax      3 \
	wolfeEnergy          0.0001 \
	wolfeGradient        0.9 \
	fdTest               no
kpoint   0.000000000000   0.000000000000   0.000000000000  1.00000000000000
kpoint-folding 3 3 1 
latt-move-scale 0 0 0
latt-scale 1 1 1 
lattice  \
	  23.436261999999999  -11.733459000000000    0.000000000000000  \
	   0.017994000000000   19.941849000000001    0.000000000000000  \
	   0.000000000000000    0.000000000000000   43.256312999999999 
lattice-minimize  \
	dirUpdateScheme      L-BFGS \
	linminMethod         DirUpdateRecommended \
	nIterations          0 \
	history              15 \
	knormThreshold       0 \
	energyDiffThreshold  1e-06 \
	nEnergyDiff          2 \
	alphaTstart          1 \
	alphaTmin            1e-10 \
	updateTestStepSize   yes \
	alphaTreduceFactor   0.1 \
	alphaTincreaseFactor 3 \
	nAlphaAdjustMax      3 \
	wolfeEnergy          0.0001 \
	wolfeGradient        0.9 \
	fdTest               no
lcao-params 30 1e-06 0.001
pcm-variant CANDLE
spintype z-spin
subspace-rotation-factor 1 yes
symmetries none
symmetry-threshold 0.0001
target-mu -0.1602 no

van-der-waals D3


Applied RMS atom displacement 0 bohrs to make symmetries exact.

---------- Initializing the Grid ----------
R = 
[      23.4363     -11.7335            0  ]
[     0.017994      19.9418            0  ]
[            0            0      43.2563  ]
unit cell volume = 20225.5
G =
[   0.267976   0.157673         -0  ]
[ -0.000241801   0.314933          0  ]
[          0         -0   0.145255  ]
Minimum fftbox size, Smin = [  96  96  176  ]
Chosen fftbox size, S = [  96  96  180  ]

---------- Exchange Correlation functional ----------
Initalized PBE GGA exchange.
Initalized PBE GGA correlation.

---------- Setting up pseudopotentials ----------
Width of ionic core gaussian charges (only for fluid interactions / plotting) set to 0.397384

Reading pseudopotential file '/projects/musgravc/apps/jdftx-1.6.0/build/pseudopotentials/GBRV_v1.5/c_pbe_v1.2.uspp':
  Title: C.  Created by USPP 7.3.6 on 3-2-2014
  Reference state energy: -5.406344.  4 valence electrons in orbitals:
    |200>  occupation: 2  eigenvalue: -0.504890
    |210>  occupation: 2  eigenvalue: -0.194356
  lMax: 1  lLocal: 2  QijEcut: 5
  4 projectors sampled on a log grid with 503 points:
    l: 0  eig: -0.504890  rCut: 1.3
    l: 0  eig: 0.000000  rCut: 1.3
    l: 1  eig: -0.194357  rCut: 1.3
    l: 1  eig: 0.000000  rCut: 1.3
  Partial core density with radius 1.1
  Transforming core density to a uniform radial grid of dG=0.02 with 1464 points.
  Transforming local potential to a uniform radial grid of dG=0.02 with 1464 points.
  Transforming nonlocal projectors to a uniform radial grid of dG=0.02 with 432 points.
  Transforming density augmentations to a uniform radial grid of dG=0.02 with 1464 points.
  Transforming atomic orbitals to a uniform radial grid of dG=0.02 with 432 points.
  Core radius for overlap checks: 1.30 bohrs.

Reading pseudopotential file '/projects/musgravc/apps/jdftx-1.6.0/build/pseudopotentials/GBRV_v1.5/n_pbe_v1.2.uspp':
  Title: N.  Created by USPP 7.3.6 on 3-2-2014
  Reference state energy: -9.763716.  5 valence electrons in orbitals:
    |200>  occupation: 2  eigenvalue: -0.681964
    |210>  occupation: 3  eigenvalue: -0.260726
  lMax: 1  lLocal: 2  QijEcut: 6
  4 projectors sampled on a log grid with 491 points:
    l: 0  eig: -0.681964  rCut: 1.15
    l: 0  eig: 0.000000  rCut: 1.15
    l: 1  eig: -0.260729  rCut: 1.2
    l: 1  eig: 0.500000  rCut: 1.2
  Partial core density with radius 0.8
  Transforming core density to a uniform radial grid of dG=0.02 with 1464 points.
  Transforming local potential to a uniform radial grid of dG=0.02 with 1464 points.
  Transforming nonlocal projectors to a uniform radial grid of dG=0.02 with 432 points.
  Transforming density augmentations to a uniform radial grid of dG=0.02 with 1464 points.
  Transforming atomic orbitals to a uniform radial grid of dG=0.02 with 432 points.
  Core radius for overlap checks: 1.20 bohrs.

Reading pseudopotential file '/projects/musgravc/apps/jdftx-1.6.0/build/pseudopotentials/GBRV_v1.5/ti_pbe_v1.4.uspp':
  Title: Ti.  Created by USPP 7.3.6 on 31-3-15
  Reference state energy: -59.020943.  12 valence electrons in orbitals:
    |300>  occupation: 2  eigenvalue: -2.777623
    |310>  occupation: 6  eigenvalue: -1.894596
    |400>  occupation: 2  eigenvalue: -0.438610
    |320>  occupation: 1  eigenvalue: -0.583119
  lMax: 2  lLocal: 3  QijEcut: 6
  6 projectors sampled on a log grid with 597 points:
    l: 0  eig: -2.777624  rCut: 1.8
    l: 0  eig: -0.438611  rCut: 1.8
    l: 1  eig: -1.894596  rCut: 1.8
    l: 1  eig: 0.500000  rCut: 1.8
    l: 2  eig: -0.583118  rCut: 1.8
    l: 2  eig: 0.150000  rCut: 1.8
  Partial core density with radius 0.8
  Transforming core density to a uniform radial grid of dG=0.02 with 1464 points.
  Transforming local potential to a uniform radial grid of dG=0.02 with 1464 points.
  Transforming nonlocal projectors to a uniform radial grid of dG=0.02 with 432 points.
  Transforming density augmentations to a uniform radial grid of dG=0.02 with 1464 points.
  Transforming atomic orbitals to a uniform radial grid of dG=0.02 with 432 points.
  Core radius for overlap checks: 1.80 bohrs.

Reading pseudopotential file '/projects/musgravc/apps/jdftx-1.6.0/build/pseudopotentials/GBRV_v1.5/o_pbe_v1.2.uspp':
  Title: O.  Created by USPP 7.3.6 on 3-2-2014
  Reference state energy: -15.894388.  6 valence electrons in orbitals:
    |200>  occupation: 2  eigenvalue: -0.878823
    |210>  occupation: 4  eigenvalue: -0.332131
  lMax: 2  lLocal: 2  QijEcut: 6
  5 projectors sampled on a log grid with 511 points:
    l: 0  eig: -0.878823  rCut: 1.25
    l: 0  eig: 0.000000  rCut: 1.25
    l: 1  eig: -0.332132  rCut: 1.25
    l: 1  eig: 0.000000  rCut: 1.25
    l: 2  eig: 1.000000  rCut: 1.25
  Partial core density with radius 0.7
  Transforming core density to a uniform radial grid of dG=0.02 with 1464 points.
  Transforming local potential to a uniform radial grid of dG=0.02 with 1464 points.
  Transforming nonlocal projectors to a uniform radial grid of dG=0.02 with 432 points.
  Transforming density augmentations to a uniform radial grid of dG=0.02 with 1464 points.
  Transforming atomic orbitals to a uniform radial grid of dG=0.02 with 432 points.
  Core radius for overlap checks: 1.25 bohrs.

Reading pseudopotential file '/projects/musgravc/apps/jdftx-1.6.0/build/pseudopotentials/GBRV_v1.5/h_pbe_v1.4.uspp':
  Title: H.  Created by USPP 7.3.6 on 2-4-15
  Reference state energy: -0.458849.  1 valence electrons in orbitals:
    |100>  occupation: 1  eigenvalue: -0.238595
  lMax: 0  lLocal: 1  QijEcut: 6
  2 projectors sampled on a log grid with 395 points:
    l: 0  eig: -0.238595  rCut: 1.2
    l: 0  eig: 1.000000  rCut: 1.2
  Transforming local potential to a uniform radial grid of dG=0.02 with 1464 points.
  Transforming nonlocal projectors to a uniform radial grid of dG=0.02 with 432 points.
  Transforming density augmentations to a uniform radial grid of dG=0.02 with 1464 points.
  Transforming atomic orbitals to a uniform radial grid of dG=0.02 with 432 points.
  Core radius for overlap checks: 1.20 bohrs.

Initialized 5 species with 56 total atoms.

Folded 1 k-points by 3x3x1 to 9 k-points.

---------- Setting up k-points, bands, fillings ----------
No reducable k-points. 
Computing the number of bands and number of electrons
Reading initial fillings from file jdft.fillings.
nElectrons: 232.208461   nBands: 140   nStates: 18

----- Setting up reduced wavefunction bases (one per k-point) -----
average nbasis = 86412.556 , ideal nbasis = 86404.907

----- Initializing Supercell corresponding to k-point mesh -----
Lattice vector linear combinations in supercell:
[   3   0   0  ]
[   0   3   0  ]
[   0   0   1  ]
Supercell lattice vectors:
[  70.3088  -35.2004  0  ]
[  0.053982  59.8255  0  ]
[  0  0  43.2563  ]

Initializing DFT-D3 calculator:
	Parameters set for gga-PBE functional
	s6:  1.000  s_r6:  1.217
	s8:  0.722  s_r8:  1.000
	Per-atom parameters loaded for:
	 C:  sqrtQ[a0]:  3.105  Rcov[a0]:  1.417  CN: [ 0.00 0.99 2.00 3.00 3.98 ]
	 N:  sqrtQ[a0]:  2.712  Rcov[a0]:  1.342  CN: [ 0.00 0.99 2.01 2.99 ]
	Ti:  sqrtQ[a0]:  6.288  Rcov[a0]:  2.305  CN: [ 0.00 1.83 3.87 ]
	 O:  sqrtQ[a0]:  2.594  Rcov[a0]:  1.191  CN: [ 0.00 0.99 1.99 ]
	 H:  sqrtQ[a0]:  2.007  Rcov[a0]:  0.605  CN: [ 0.91 0.00 ]

Initializing DFT-D2 calculator for fluid / solvation:
	 C:  C6:   30.35 Eh-a0^6  R0: 2.744 a0
	 N:  C6:   21.33 Eh-a0^6  R0: 2.640 a0
	Ti:  C6:  187.33 Eh-a0^6  R0: 2.952 a0
	 O:  C6:   12.14 Eh-a0^6  R0: 2.536 a0
	 H:  C6:    2.43 Eh-a0^6  R0: 1.892 a0

---------- Setting up ewald sum ----------
Optimum gaussian width for ewald sums = 5.557061 bohr.
Real space sum over 567 unit cells with max indices [  4  4  3  ]
Reciprocal space sum over 7803 terms with max indices [  8  8  13  ]

Computing DFT-D3 correction:
# coordination-number C 3.302 3.321 3.334 3.332 3.313 3.291 3.328 3.650 3.329 3.314 3.304 3.327 3.308 3.303 3.325 3.591 3.270 3.301 3.320 3.334 3.326 3.302 3.302 3.326 3.334 3.320 3.301 3.269 3.647 3.326 3.302 3.306 3.334 3.304 3.314 3.330 3.599 3.326 3.292 3.313 3.332 3.334 3.321 3.301 3.015
# coordination-number N 3.184 3.177 3.178 3.180
# coordination-number Ti 7.588
# coordination-number O 1.985 1.993 2.133
# coordination-number H 1.106 0.992 0.991
# diagonal-C6 C 24.27 24.07 23.94 23.96 24.15 24.36 23.99 19.74 23.98 24.14 24.25 24.00 24.21 24.26 24.02 20.38 24.55 24.27 24.09 23.93 24.01 24.26 24.26 24.02 23.93 24.08 24.27 24.56 19.76 24.02 24.26 24.22 23.92 24.24 24.14 23.97 20.29 24.01 24.36 24.16 23.95 23.93 24.07 24.27 25.64
# diagonal-C6 N 15.60 15.60 15.60 15.60
# diagonal-C6 Ti 321.59
# diagonal-C6 O 10.41 10.41 10.38
# diagonal-C6 H 3.06 3.09 3.09
EvdW_6 =   -0.044034
EvdW_8 =   -0.033548

---------- Allocating electronic variables ----------
Initializing wave functions:  reading from 'jdft.wfns'
----- createFluidSolver() ----- (Fluid-side solver setup)
   Initializing fluid molecule 'H2O'
     Initializing site 'O'
       Electron density: proportional to exp(-r/0.36935)*erfc((r-0.51523)/0.36823) with norm 6.826
       Charge density: gaussian nuclear width 0.478731 with net site charge 0.826
       Polarizability: cuspless exponential with width 0.32 and norm 3.73
       Hard sphere radius: 2.57003 bohrs
       Positions in reference frame:
         [ +0.000000 +0.000000 +0.000000 ]
     Initializing site 'H'
       Electron density: proportional to exp(-r/0.34641)*erfc((r-0)/0.390882) with norm 0.587
       Charge density: gaussian nuclear width 0.377945 with net site charge -0.413
       Polarizability: cuspless exponential with width 0.39 and norm 3.3
       Positions in reference frame:
         [ +0.000000 -1.441945 +1.122523 ]
         [ +0.000000 +1.441945 +1.122523 ]
     Net charge: 0   dipole magnitude: 0.927204
     Initializing spherical shell mfKernel with radius 2.61727 Bohr
     deltaS corrections:
       site 'O': -7.54299
       site 'H': -6.83917
   Initializing fluid molecule 'Na+'
     Initializing site 'Na'
       Electron density: proportional to exp(-r/0.19682)*erfc((r-0.71491)/0.41314) with norm 8.1383
       Charge density: gaussian nuclear width 0.365347 with net site charge -1
       Hard sphere radius: 1.86327 bohrs
       Positions in reference frame:
         [ +0.000000 +0.000000 +0.000000 ]
     Net charge: -1   dipole magnitude: 0
     Initializing gaussian mfKernel with width: 1.55004 Bohr
     deltaS corrections:
       site 'Na': -22.3555
   Initializing fluid molecule 'F-'
     Initializing site 'F'
       Electron density: proportional to exp(-r/0.38886)*erfc((r-0)/0.438782) with norm 8
       Charge density: gaussian nuclear width 0.374796 with net site charge 1
       Hard sphere radius: 2.39995 bohrs
       Positions in reference frame:
         [ +0.000000 +0.000000 +0.000000 ]
     Net charge: 1   dipole magnitude: 0
     Initializing gaussian mfKernel with width: 1.59012 Bohr
     deltaS corrections:
       site 'F': -9.04335

Correction to mu due to finite nuclear width = -0.0114303
   Cavity determined by nc: 0.00142 and sigma: 0.707107
   Nonlocal vdW cavity from gaussian model electron density with norm = 8 and sigma = 0.993594 bohr
   Charge asymmetry in cavity with sensitivity pCavity = 36.5 e-bohr/Eh
   Electrostatic cavity expanded by eta = 1.46 bohrs
   Weighted density cavitation model constrained by Nbulk: 0.0049383 bohr^-3, Pvap: 3.14029 kPa, Rvdw: 2.61727 bohr and sigmaBulk: 4.62e-05 Eh/bohr^2 at T: 298 K.
   Weighted density dispersion model using vdW pair potentials with single solvent site with sqrtC6eff: 0.77 SI.
Reading fluid state from 'jdft.fluidState'


---- Citations for features of the code used in this run ----

   Software package:
      R. Sundararaman, K. Letchworth-Weaver, K.A. Schwarz, D. Gunceler, Y. Ozhabes and T.A. Arias, 'JDFTx: software for joint density-functional theory', SoftwareX 6, 278 (2017)

   gga-PBE exchange-correlation functional:
      J.P. Perdew, K. Burke and M. Ernzerhof, Phys. Rev. Lett. 77, 3865 (1996)

   Pseudopotentials:
      KF Garrity, JW Bennett, KM Rabe and D Vanderbilt, Comput. Mater. Sci. 81, 446 (2014)

   DFT-D3 dispersion correction:
      S. Grimme, J. Antony, S. Ehrlich and H. Krieg, J. Chem. Phys. 132, 154104 (2010)

   DFT-D2 dispersion correction:
      S. Grimme, J. Comput. Chem. 27, 1787 (2006)

   Charge-asymmetric nonlocally-determined local-electric (CANDLE) solvation model:
      R. Sundararaman and W.A. Goddard III, J. Chem. Phys. 142, 064107 (2015)

   Total energy minimization with Auxiliary Hamiltonian:
      C. Freysoldt, S. Boeck, and J. Neugebauer, Phys. Rev. B 79, 241103(R) (2009)

   Grand-canonical (fixed-potential) DFT:
      R. Sundararaman, W. A. Goddard III and T. A. Arias, J. Chem. Phys. 146, 114104 (2017)

   Linear-tetrahedron sampling for density of states:
      G. Lehmann and M. Taut, Phys. status solidi (b) 54, 469 (1972)

This list may not be complete. Please suggest additional citations or
report any other bugs at https://github.com/shankar1729/jdftx/issues

Initialization completed successfully at t[s]:     25.06


Computing DFT-D3 correction:
# coordination-number C 3.302 3.321 3.334 3.332 3.313 3.291 3.328 3.650 3.329 3.314 3.304 3.327 3.308 3.303 3.325 3.591 3.270 3.301 3.320 3.334 3.326 3.302 3.302 3.326 3.334 3.320 3.301 3.269 3.647 3.326 3.302 3.306 3.334 3.304 3.314 3.330 3.599 3.326 3.292 3.313 3.332 3.334 3.321 3.301 3.015
# coordination-number N 3.184 3.177 3.178 3.180
# coordination-number Ti 7.588
# coordination-number O 1.985 1.993 2.133
# coordination-number H 1.106 0.992 0.991
# diagonal-C6 C 24.27 24.07 23.94 23.96 24.15 24.36 23.99 19.74 23.98 24.14 24.25 24.00 24.21 24.26 24.02 20.38 24.55 24.27 24.09 23.93 24.01 24.26 24.26 24.02 23.93 24.08 24.27 24.56 19.76 24.02 24.26 24.22 23.92 24.24 24.14 23.97 20.29 24.01 24.36 24.16 23.95 23.93 24.07 24.27 25.64
# diagonal-C6 N 15.60 15.60 15.60 15.60
# diagonal-C6 Ti 321.59
# diagonal-C6 O 10.41 10.41 10.38
# diagonal-C6 H 3.06 3.09 3.09
EvdW_6 =   -0.044034
EvdW_8 =   -0.033548
Shifting auxilliary hamiltonian by -0.000008 to set nElectrons=232.208461

-------- Electronic minimization -----------
	Linear fluid (dielectric constant: 78.4, screening length: 8.12261 Bohr) occupying 0.710168 of unit cell:	Completed after 0 iterations at t[s]:     56.06
	FillingsUpdate:  mu: -0.160200000  nElectrons: 232.208461  magneticMoment: [ Abs: 0.00082  Tot: +0.00069 ]
ElecMinimize: Iter:   0  G: -368.085568047661127  |grad|_K:  1.289e-08  alpha:  1.000e+00
	Linear fluid (dielectric constant: 78.4, screening length: 8.12261 Bohr) occupying 0.710168 of unit cell:	Completed after 2 iterations at t[s]:    185.64
	Linear fluid (dielectric constant: 78.4, screening length: 8.12261 Bohr) occupying 0.710168 of unit cell:	Completed after 2 iterations at t[s]:    232.48
	FillingsUpdate:  mu: -0.160200000  nElectrons: 232.208180  magneticMoment: [ Abs: 0.00077  Tot: +0.00064 ]
	SubspaceRotationAdjust: set factor to 1.04
ElecMinimize: Iter:   1  G: -368.085568054955559  |grad|_K:  1.301e-08  alpha:  1.672e-01  linmin: -8.861e-04  t[s]:    295.86
	Linear fluid (dielectric constant: 78.4, screening length: 8.12261 Bohr) occupying 0.710168 of unit cell:	Completed after 0 iterations at t[s]:    349.51
	Linear fluid (dielectric constant: 78.4, screening length: 8.12261 Bohr) occupying 0.710168 of unit cell:	Completed after 1 iterations at t[s]:    396.71
ElecMinimize: 	Step increased G by 2.580049e-08, reducing alpha to 4.910035e-02.
	Linear fluid (dielectric constant: 78.4, screening length: 8.12261 Bohr) occupying 0.710168 of unit cell:	Completed after 0 iterations at t[s]:    500.79
	FillingsUpdate:  mu: -0.160200000  nElectrons: 232.208114  magneticMoment: [ Abs: 0.00073  Tot: +0.00061 ]
	SubspaceRotationAdjust: set factor to 0.641
ElecMinimize: Iter:   2  G: -368.085568061975380  |grad|_K:  1.942e-08  alpha:  4.910e-02  linmin:  1.205e-03  t[s]:    563.67
ElecMinimize: Converged (|Delta G|<1.000000e-07 for 2 iters).
Setting wave functions to eigenvectors of Hamiltonian
Converging empty states (this may take a while): |deigs|: 4.150e-09

Computing DFT-D3 correction:
# coordination-number C 3.302 3.321 3.334 3.332 3.313 3.291 3.328 3.650 3.329 3.314 3.304 3.327 3.308 3.303 3.325 3.591 3.270 3.301 3.320 3.334 3.326 3.302 3.302 3.326 3.334 3.320 3.301 3.269 3.647 3.326 3.302 3.306 3.334 3.304 3.314 3.330 3.599 3.326 3.292 3.313 3.332 3.334 3.321 3.301 3.015
# coordination-number N 3.184 3.177 3.178 3.180
# coordination-number Ti 7.588
# coordination-number O 1.985 1.993 2.133
# coordination-number H 1.106 0.992 0.991
# diagonal-C6 C 24.27 24.07 23.94 23.96 24.15 24.36 23.99 19.74 23.98 24.14 24.25 24.00 24.21 24.26 24.02 20.38 24.55 24.27 24.09 23.93 24.01 24.26 24.26 24.02 23.93 24.08 24.27 24.56 19.76 24.02 24.26 24.22 23.92 24.24 24.14 23.97 20.29 24.01 24.36 24.16 23.95 23.93 24.07 24.27 25.64
# diagonal-C6 N 15.60 15.60 15.60 15.60
# diagonal-C6 Ti 321.59
# diagonal-C6 O 10.41 10.41 10.38
# diagonal-C6 H 3.06 3.09 3.09
EvdW_6 =   -0.044034
EvdW_8 =   -0.033548

# Ionic positions in cartesian coordinates:
ion C   0.076186400297465  -0.003451380461316  43.344510976328941 1
ion C  21.132134831029390   3.964055742574101  43.365475366405072 1
ion C  18.786752695386305   7.970406701746747  43.389862328169912 1
ion C  -6.964147897987748  11.968934017539775  43.382919202651053 1
ion C  -9.295057140269389  15.978567013262142  43.369432806335958 1
ion C   4.763517943287296   0.108481253905149   0.106030306841196 1
ion C   2.375424120451613   4.108417552296665   0.129746438732026 1
ion C  -0.027122732819199   7.951365628209617   0.137593940394837 1
ion C  -2.349687895083981  11.964469622125577  43.379581940366151 1
ion C  -4.647787092197428  15.988863579702953  43.361626565845420 1
ion C   9.453344942049188   0.010443885800431  43.332780492196683 1
ion C   7.166319676816964   4.118329935000464   0.144745740225923 1
ion C   0.041890341338840  15.905215769957376   0.083601390249648 1
ion C   2.426623826000036  19.857045485504702  43.343217592547731 1
ion C  11.841712932062388   3.953750538153665  43.356559626389860 1
ion C   9.555110129612569   7.937148298377889   0.160226495549843 1
ion C   4.749362134170200  15.761135399841534   0.151501650538355 1
ion C   7.079582951682754  19.857750869037403  43.360504620462144 1
ion C  16.487725489942981   3.939425926864372  43.364125200071264 1
ion C  14.180084850415163   7.961821231484111  43.375945287215607 1
ion C  11.853051965176617  11.960481497148868  43.396417550524617 1
ion C   9.447303015838468  15.891003520507262   0.119953644680881 1
ion C   0.064990128464740   2.681164878135688   0.092367963592566 1
ion C  -2.335226885381465   6.622967887208074  43.386757559470333 1
ion C  -4.656953297832322  10.624554693476199  43.390311566843209 1
ion C  -6.968572763536218  14.645340781699906  43.373912754266442 1
ion C  -9.294653249230004  18.665602405112136  43.355832170051585 1
ion C   4.766896217979997   2.824761577732807   0.135011210456372 1
ion C  -0.032742858602762  10.650766793338017   0.125273910684293 1
ion C  -2.324887286463738  14.636764443378569  43.360836685184090 1
ion C  -4.642606070522001  18.674266646781533  43.350451122896303 1
ion C   9.472399496797731   2.690313356602915   0.089806912343860 1
ion C   2.348040668685851  14.483196201292168   0.133359267560871 1
ion C   0.061407164982873  18.583736676926712  43.329262522565166 1
ion C  14.164916287219910   2.599809339054755  43.351589120443350 1
ion C  11.871190287870309   6.624915731976639  43.373594354346316 1
ion C   9.546266632963565  10.631546463878776   0.179807198552890 1
ion C   7.135859897774983  14.461515713653805   0.175899402184162 1
ion C   4.753614905408844  18.477940470430063   0.110832431497258 1
ion C  18.813025830042953   2.604010865858152  43.361622179321202 1
ion C  16.486093413456480   6.616838932532827  43.375342517934833 1
ion C  14.170993441100826  10.632510750319335  43.383800315413254 1
ion C  11.822395237845127  14.634337047152227  43.384643178408282 1
ion C   9.437482448143070  18.576776946542754  43.353214345574216 1
ion C   4.252889284483591  10.028804153465941   5.420886848681809 1
ion N   2.240769979631850  11.899615004717676   0.193173965498954 1
ion N   7.252853311775910  11.858269230644739   0.278103964510017 1
ion N   2.262260726860358   6.710872197231704   0.194526271969377 1
ion N   7.281640719172504   6.700800887052308   0.230919391919731 1
ion Ti   4.705643791371928   9.298375825220290   1.639848643890838 1
ion O   3.498666096708808  10.766899945184509   7.611155622543889 1
ion O   6.202310380282174   8.633108585476727   5.119550893350945 1
ion O  -0.117138317167918  13.718444204426058   6.888289310662458 1
ion H   1.901340592213558  11.999219141024925   7.373765725092851 1
ion H   0.270146019222672  15.409982966545401   7.561429038759301 1
ion H  -1.714230718924622  13.211793167346583   7.707157470806769 1

# Forces in Cartesian coordinates:
force C   0.000308474016018   0.000021096267163  -0.000186822183027 1
force C  -0.000188487174229   0.000571561573686  -0.000025787494804 1
force C  -0.000182660832584   0.000428675898150  -0.000385574522395 1
force C  -0.000228128611718  -0.000106933092093  -0.000139879259763 1
force C   0.000339178124944  -0.000104964857266   0.000019390403713 1
force C   0.000165419043100  -0.000346254922250   0.000086333470429 1
force C   0.000312368324874   0.000175986875382   0.000118339466638 1
force C   0.000157024036008   0.000508639329179   0.000273758430133 1
force C  -0.000090773378713   0.000046259713881  -0.000153693344691 1
force C   0.000104772115012  -0.000047120021269  -0.000049948248329 1
force C  -0.000118799021253   0.000027860863671  -0.000160179610210 1
force C   0.000142752174266  -0.000420219222896   0.000023079259416 1
force C   0.000103855559529  -0.000382892028231  -0.000044603145761 1
force C  -0.000020299567798  -0.000189646613714   0.000181061629414 1
force C   0.000039177918451   0.000181102537839  -0.000246890417941 1
force C  -0.000141450076171  -0.000117160369314  -0.000201435559809 1
force C  -0.000192075340556  -0.000350290277676   0.000155896713441 1
force C  -0.000186245579531  -0.000116073492043  -0.000175301456209 1
force C  -0.000163618949703   0.000267811308736   0.000132165085019 1
force C  -0.000038428662596   0.000317301850120  -0.000060570729064 1
force C   0.000310634534549   0.000057891702335   0.000088938345459 1
force C   0.000362391744308  -0.000070591916098  -0.000020505709581 1
force C   0.000259797750610   0.000471273099036   0.000072319337487 1
force C   0.000137730761526  -0.000525248664377   0.000023644516927 1
force C  -0.000129183192569  -0.000227691363218  -0.000485353083573 1
force C  -0.000062776808433   0.000209496684446   0.000114445504853 1
force C  -0.000287397062759   0.000332992936219   0.000016360747996 1
force C  -0.000272299176726   0.000449581085349   0.000243492431218 1
force C   0.000130547895059  -0.000374092989082   0.000279635719499 1
force C   0.000290362960634  -0.000433195261951  -0.000056346054171 1
force C  -0.000022619616701   0.000039851032810  -0.000003331085814 1
force C  -0.000031575627933   0.000005960837511  -0.000214855103363 1
force C   0.000146509137557  -0.000058082715283  -0.000020845825173 1
force C   0.000107858660372  -0.000106660104636  -0.000110617142690 1
force C   0.000377331132278  -0.000194714820399  -0.000017705498856 1
force C   0.000020123860212  -0.000438700100492  -0.000114495689903 1
force C  -0.000347041850856   0.000211944263083  -0.000161550537020 1
force C   0.000233025225707   0.000483052970895  -0.000022116414172 1
force C   0.000049111145553   0.000291097205959   0.000060623919629 1
force C  -0.000087056542842  -0.000145941139524  -0.000027695399872 1
force C  -0.000214899046651  -0.000234187891651  -0.000119497756205 1
force C   0.000077119822624  -0.000112239684413  -0.000060664344233 1
force C  -0.000560167130690   0.000208305372248  -0.000145580502891 1
force C  -0.000258210689296   0.000251887829764  -0.000150878710362 1
force C  -0.000567365832376   0.000748799672081   0.000839253555612 1
force N   0.000091889866327   0.000095903345392   0.000506879395002 1
force N   0.000408011496243  -0.000262360638195   0.000319200052311 1
force N   0.000399225578700   0.000179125102513   0.000270704158696 1
force N   0.000167270101318   0.000322517286508   0.000524693015336 1
force Ti  -0.000414497508776  -0.000343901227842  -0.000229303344405 1
force O   0.000297676902577  -0.000087954534980  -0.000540639294860 1
force O   0.000025012719545  -0.000230581283100   0.000595119921108 1
force O  -0.000563783563735  -0.001582879565074  -0.000883609859231 1
force H  -0.000154255913622   0.000270862531570  -0.000351935283382 1
force H   0.000080794649641   0.001336512566403   0.000508904443917 1
force H   0.000434615892482  -0.000123028131345  -0.000198721371421 1

# Energy components:
   A_diel =        0.0145612849456451
   Eewald =     1716.4894250615147939
       EH =     2034.4456471320477249
     Eloc =    -4306.8443791137669905
      Enl =       54.7508471028404955
     EvdW =       -0.0775829463471055
      Exc =     -113.3119263405740753
 Exc_core =        3.3745937828740908
       KE =      205.8647637030683200
  MuShift =        0.0090514652265305
-------------------------------------
     Etot =     -405.2849988681706463
       TS =        0.0003090212771108
-------------------------------------
        F =     -405.2853078894477790
      muN =      -37.1997398274723921
-------------------------------------
        G =     -368.0855680619753798


Dumping 'jdft.fillings' ... done
Dumping 'jdft.wfns' ... done
Dumping 'jdft.fluidState' ... done
Dumping 'jdft.ionpos' ... done
Dumping 'jdft.lattice' ... done
Dumping 'jdft.eigenvals' ... done
Dumping 'jdft.eigStats' ... 
	eMin: -2.297584 at state 0 ( [ +0.000000 +0.000000 +0.000000 ] spin 1 )
	HOMO: -0.168510 at state 17 ( [ -0.333333 -0.333333 +0.000000 ] spin -1 )
	mu  : -0.160200
	LUMO: -0.160099 at state 8 ( [ -0.333333 -0.333333 +0.000000 ] spin 1 )
	eMax: +0.016623 at state 13 ( [ +0.333333 +0.333333 +0.000000 ] spin -1 )
	HOMO-LUMO gap: +0.008411
	Optical gap  : +0.008412 at state 8 ( [ -0.333333 -0.333333 +0.000000 ] spin 1 )
Dumping 'jdft.Ecomponents' ... done
IonicMinimize: Iter:   0  G: -368.085568061975380  |grad|_K:  3.182e-04  t[s]:    720.25

#--- Lowdin population analysis ---
# oxidation-state C +0.050 +0.063 +0.050 +0.055 +0.047 +0.053 +0.175 +0.135 +0.039 +0.046 +0.050 +0.178 +0.037 +0.053 +0.063 +0.143 +0.007 +0.053 +0.048 +0.049 +0.039 +0.039 +0.039 +0.039 +0.048 +0.046 +0.053 +0.006 +0.137 +0.063 +0.052 +0.037 +0.181 +0.049 +0.047 +0.038 +0.140 +0.174 +0.053 +0.046 +0.055 +0.049 +0.062 +0.050 +0.232
# magnetic-moments C +0.000 +0.000 +0.000 +0.000 +0.000 +0.000 -0.000 +0.000 +0.000 +0.000 +0.000 +0.000 +0.000 +0.000 +0.000 +0.000 -0.000 +0.000 +0.000 +0.000 +0.000 +0.000 +0.000 +0.000 -0.000 +0.000 +0.000 -0.000 +0.000 +0.000 +0.000 +0.000 +0.000 +0.000 +0.000 +0.000 +0.000 -0.000 +0.000 +0.000 +0.000 +0.000 +0.000 +0.000 +0.000
# oxidation-state N -0.294 -0.297 -0.309 -0.302
# magnetic-moments N +0.000 +0.000 +0.000 +0.000
# oxidation-state Ti +1.452
# magnetic-moments Ti +0.000
# oxidation-state O -0.370 -0.402 -0.672
# magnetic-moments O +0.000 -0.000 -0.000
# oxidation-state H +0.396 +0.485 +0.486
# magnetic-moments H +0.000 +0.000 -0.000


Computing DFT-D3 correction:
# coordination-number C 3.301 3.321 3.334 3.332 3.313 3.291 3.328 3.650 3.330 3.315 3.303 3.327 3.308 3.303 3.325 3.591 3.270 3.301 3.320 3.334 3.327 3.302 3.302 3.326 3.334 3.320 3.301 3.269 3.648 3.325 3.302 3.306 3.334 3.304 3.315 3.330 3.599 3.326 3.292 3.313 3.332 3.334 3.321 3.301 3.015
# coordination-number N 3.184 3.177 3.178 3.180
# coordination-number Ti 7.589
# coordination-number O 1.985 1.993 2.133
# coordination-number H 1.106 0.991 0.991
# diagonal-C6 C 24.27 24.07 23.94 23.95 24.15 24.36 23.99 19.73 23.98 24.14 24.25 24.00 24.21 24.26 24.02 20.38 24.55 24.27 24.09 23.93 24.01 24.27 24.26 24.02 23.93 24.09 24.27 24.56 19.76 24.02 24.26 24.22 23.93 24.24 24.14 23.97 20.29 24.01 24.36 24.15 23.95 23.93 24.07 24.27 25.64
# diagonal-C6 N 15.60 15.60 15.60 15.60
# diagonal-C6 Ti 321.59
# diagonal-C6 O 10.41 10.41 10.38
# diagonal-C6 H 3.06 3.09 3.09
EvdW_6 =   -0.044035
EvdW_8 =   -0.033548
Shifting auxilliary hamiltonian by 0.000023 to set nElectrons=232.208114

-------- Electronic minimization -----------
	Linear fluid (dielectric constant: 78.4, screening length: 8.12261 Bohr) occupying 0.710173 of unit cell:	Completed after 3 iterations at t[s]:    788.47
	FillingsUpdate:  mu: -0.160200000  nElectrons: 232.208114  magneticMoment: [ Abs: 0.00047  Tot: +0.00035 ]
ElecMinimize: Iter:   0  G: -368.085573606298055  |grad|_K:  1.840e-07  alpha:  1.000e+00
	Linear fluid (dielectric constant: 78.4, screening length: 8.12261 Bohr) occupying 0.710167 of unit cell:	Completed after 8 iterations at t[s]:    921.31
	Linear fluid (dielectric constant: 78.4, screening length: 8.12261 Bohr) occupying 0.710171 of unit cell:	Completed after 7 iterations at t[s]:    971.57
	FillingsUpdate:  mu: -0.160200000  nElectrons: 232.205744  magneticMoment: [ Abs: 0.00044  Tot: +0.00033 ]
	SubspaceRotationAdjust: set factor to 0.452
ElecMinimize: Iter:   1  G: -368.085575769722027  |grad|_K:  1.651e-07  alpha:  2.868e-01  linmin:  1.314e-04  t[s]:   1034.68
	Linear fluid (dielectric constant: 78.4, screening length: 8.12261 Bohr) occupying 0.710172 of unit cell:	Completed after 3 iterations at t[s]:   1091.28
	Linear fluid (dielectric constant: 78.4, screening length: 8.12261 Bohr) occupying 0.710172 of unit cell:	Completed after 0 iterations at t[s]:   1135.36
	FillingsUpdate:  mu: -0.160200000  nElectrons: 232.208909  magneticMoment: [ Abs: 0.00039  Tot: +0.00029 ]
	SubspaceRotationAdjust: set factor to 0.87
ElecMinimize: Iter:   2  G: -368.085577631851152  |grad|_K:  5.056e-08  alpha:  3.145e-01  linmin: -1.112e-03  t[s]:   1198.36
	Linear fluid (dielectric constant: 78.4, screening length: 8.12261 Bohr) occupying 0.710172 of unit cell:	Completed after 3 iterations at t[s]:   1255.09
	Linear fluid (dielectric constant: 78.4, screening length: 8.12261 Bohr) occupying 0.710172 of unit cell:	Completed after 0 iterations at t[s]:   1299.37
	FillingsUpdate:  mu: -0.160200000  nElectrons: 232.209390  magneticMoment: [ Abs: 0.00037  Tot: +0.00028 ]
	SubspaceRotationAdjust: set factor to 0.6
ElecMinimize: Iter:   3  G: -368.085577795331915  |grad|_K:  6.594e-08  alpha:  2.914e-01  linmin: -3.546e-03  t[s]:   1362.42
	Linear fluid (dielectric constant: 78.4, screening length: 8.12261 Bohr) occupying 0.710171 of unit cell:	Completed after 3 iterations at t[s]:   1419.13
	Linear fluid (dielectric constant: 78.4, screening length: 8.12261 Bohr) occupying 0.710171 of unit cell:	Completed after 0 iterations at t[s]:   1463.83
	FillingsUpdate:  mu: -0.160200000  nElectrons: 232.208306  magneticMoment: [ Abs: 0.00033  Tot: +0.00025 ]
	SubspaceRotationAdjust: set factor to 0.307
ElecMinimize: Iter:   4  G: -368.085578049449623  |grad|_K:  5.236e-08  alpha:  1.947e-01  linmin:  1.963e-03  t[s]:   1526.73
	Linear fluid (dielectric constant: 78.4, screening length: 8.12261 Bohr) occupying 0.710171 of unit cell:	Completed after 1 iterations at t[s]:   1582.30
	Linear fluid (dielectric constant: 78.4, screening length: 8.12261 Bohr) occupying 0.710171 of unit cell:	Completed after 0 iterations at t[s]:   1626.43
	FillingsUpdate:  mu: -0.160200000  nElectrons: 232.208367  magneticMoment: [ Abs: 0.00031  Tot: +0.00023 ]
	SubspaceRotationAdjust: set factor to 0.386
ElecMinimize: Iter:   5  G: -368.085578091270975  |grad|_K:  2.345e-08  alpha:  1.374e-01  linmin: -1.285e-03  t[s]:   1689.41
	Linear fluid (dielectric constant: 78.4, screening length: 8.12261 Bohr) occupying 0.710171 of unit cell:	Completed after 0 iterations at t[s]:   1743.40
ElecMinimize: 	Predicted alpha/alphaT>3.000000, increasing alphaT to 4.122984e-01.
	Linear fluid (dielectric constant: 78.4, screening length: 8.12261 Bohr) occupying 0.710171 of unit cell:	Completed after 0 iterations at t[s]:   1788.12
	Linear fluid (dielectric constant: 78.4, screening length: 8.12261 Bohr) occupying 0.710170 of unit cell:	Completed after 0 iterations at t[s]:   1833.95
	FillingsUpdate:  mu: -0.160200000  nElectrons: 232.208308  magneticMoment: [ Abs: 0.00027  Tot: +0.00020 ]
	SubspaceRotationAdjust: set factor to 0.454
ElecMinimize: Iter:   6  G: -368.085578166202424  |grad|_K:  1.193e-08  alpha:  5.388e-01  linmin: -2.669e-03  t[s]:   1896.79
ElecMinimize: Converged (|Delta G|<1.000000e-07 for 2 iters).
Setting wave functions to eigenvectors of Hamiltonian
Converging empty states (this may take a while): |deigs|: 2.466e-09

Computing DFT-D3 correction:
# coordination-number C 3.301 3.321 3.334 3.332 3.313 3.291 3.328 3.650 3.330 3.315 3.303 3.327 3.308 3.303 3.325 3.591 3.270 3.301 3.320 3.334 3.327 3.302 3.302 3.326 3.334 3.320 3.301 3.269 3.648 3.325 3.302 3.306 3.334 3.304 3.315 3.330 3.599 3.326 3.292 3.313 3.332 3.334 3.321 3.301 3.015
# coordination-number N 3.184 3.177 3.178 3.180
# coordination-number Ti 7.589
# coordination-number O 1.985 1.993 2.133
# coordination-number H 1.106 0.991 0.991
# diagonal-C6 C 24.27 24.07 23.94 23.95 24.15 24.36 23.99 19.73 23.98 24.14 24.25 24.00 24.21 24.26 24.02 20.38 24.55 24.27 24.09 23.93 24.01 24.27 24.26 24.02 23.93 24.09 24.27 24.56 19.76 24.02 24.26 24.22 23.93 24.24 24.14 23.97 20.29 24.01 24.36 24.15 23.95 23.93 24.07 24.27 25.64
# diagonal-C6 N 15.60 15.60 15.60 15.60
# diagonal-C6 Ti 321.59
# diagonal-C6 O 10.41 10.41 10.38
# diagonal-C6 H 3.06 3.09 3.09
EvdW_6 =   -0.044035
EvdW_8 =   -0.033548

# Ionic positions in cartesian coordinates:
ion C   0.076484946342212  -0.003444208208680  43.344329737975556 1
ion C  21.131936415883885   3.964613380133259  43.365455162739913 1
ion C  18.786560106582449   7.970821453630371  43.389482337477162 1
ion C  -6.964385954570737  11.968813160433154  43.382784907220937 1
ion C  -9.294727890115714  15.978448124390349  43.369457780569306 1
ion C   4.763673434359124   0.108121074968372   0.106122224141267 1
ion C   2.375726560805216   4.108579615157519   0.129870362028305 1
ion C  -0.026975636754462   7.951860343524269   0.137873282654612 1
ion C  -2.349788596433966  11.964501957824931  43.379433830851099 1
ion C  -4.647692248053689  15.988802535667155  43.361582201426728 1
ion C   9.453216215056663   0.010457822649575  43.332625896416111 1
ion C   7.166452501019956   4.117895791763041   0.144774403314981 1
ion C   0.041984268927097  15.904818953914615   0.083562370933529 1
ion C   2.426593598460965  19.856841914876462  43.343404238006791 1
ion C  11.841742182009567   3.953917716676977  43.356318319801552 1
ion C   9.554958751565124   7.937017213994047   0.160030643819675 1
ion C   4.749160130858373  15.760771185549331   0.151663131081438 1
ion C   7.079386778131953  19.857620871530834  43.360334902835575 1
ion C  16.487551943022005   3.939679814158580  43.364262948985925 1
ion C  14.180036493781298   7.962124609319702  43.375890300316186 1
ion C  11.853352671739891  11.960525464836676  43.396512072699721 1
ion C   9.447655479611507  15.890919004576636   0.119938722800941 1
ion C   0.065239998244078   2.681622227220198   0.092445866759694 1
ion C  -2.335099082591209   6.622428714529170  43.386786787816909 1
ion C  -4.657092408996164  10.624313078098455  43.389831797589281 1
ion C  -6.968645468315924  14.645536354369826  43.374032783600931 1
ion C  -9.294950574264034  18.665921474033830  43.355854114629224 1
ion C   4.766613990831998   2.825197234803629   0.135260286717231 1
ion C  -0.032622238678974  10.650378776334410   0.125559130233433 1
ion C  -2.324606851474375  14.636317324102089  43.360785922959558 1
ion C  -4.642638618109975  18.674292573799818  43.350453375640129 1
ion C   9.472357993198527   2.690305393425899   0.089597641070138 1
ion C   2.348177249852137  14.483124194562359   0.133344005565340 1
ion C   0.061505095671972  18.583616092807553  43.329157489252118 1
ion C  14.165283690380917   2.599600700219828  43.351576998774135 1
ion C  11.871200483759250   6.624463107861620  43.373485442486050 1
ion C   9.545909663141437  10.631744484127333   0.179651231845511 1
ion C   7.136082995029421  14.461984842610171   0.175882869599632 1
ion C   4.753654088583122  18.478217643621495   0.110898639246529 1
ion C  18.812928845528841   2.603851000704101  43.361600067750970 1
ion C  16.485868586438556   6.616590820626649  43.375228604008271 1
ion C  14.171060632952178  10.632384586620397  43.383745234898662 1
ion C  11.821825142743165  14.634531428509948  43.384503181735035 1
ion C   9.437214309482506  18.577014910357988  43.353069050693492 1
ion C   4.252311990679943  10.029539029123496   5.421731686067062 1
ion N   2.240851941526905  11.899696984048541   0.193686428723597 1
ion N   7.253251395300882  11.857992945992017   0.278428748391969 1
ion N   2.262650024467786   6.711037398319689   0.194802559957715 1
ion N   7.281798061302553   6.701109480324289   0.231449668764709 1
ion Ti   4.705219365891881   9.298017999977922   1.639624924376075 1
ion O   3.498953845640113  10.766798066635005   7.610620567078670 1
ion O   6.202325465030447   8.632864080179100   5.120151597101696 1
ion O  -0.117712028702926  13.716847400846456   6.887411284632869 1
ion H   1.901176408328665  11.999476079541967   7.373419373639110 1
ion H   0.270216885901041  15.411305555097277   7.561943527032860 1
ion H  -1.713806031003411  13.211656215200710   7.706964333264990 1

# Forces in Cartesian coordinates:
force C  -0.000024222462604   0.000286787102007  -0.000163609707118 1
force C  -0.000060697321928   0.000086537217158  -0.000009800650718 1
force C  -0.000054682592156  -0.000053678123008  -0.000365165316197 1
force C  -0.000090065273743  -0.000024066941127  -0.000148001079894 1
force C  -0.000031351390256   0.000091735305913   0.000015651705016 1
force C  -0.000025738054457   0.000004480443851   0.000096843751492 1
force C   0.000147592832905   0.000242455739967   0.000154361382492 1
force C   0.000137322911573   0.000072520163274   0.000263373870576 1
force C   0.000001804670169  -0.000198118969913  -0.000149733558093 1
force C   0.000159341556352  -0.000074134510475  -0.000037885230415 1
force C   0.000029678412176  -0.000009057726174  -0.000162254703131 1
force C   0.000027409780797  -0.000071398343548   0.000086061162567 1
force C   0.000133639091810  -0.000193717175456  -0.000052350053351 1
force C   0.000053890566394  -0.000086840761258   0.000151025364242 1
force C   0.000141812473347  -0.000099804727244  -0.000233008611684 1
force C  -0.000026932064554  -0.000041661582405  -0.000150466400987 1
force C   0.000017656845383  -0.000052605611359   0.000139957926538 1
force C  -0.000108378128972   0.000019531630351  -0.000153927313571 1
force C  -0.000012689038676  -0.000016437579181   0.000106227270932 1
force C  -0.000077256017320  -0.000027962638495  -0.000077202096408 1
force C  -0.000004977922875   0.000074461798758   0.000045507356500 1
force C   0.000036917446151   0.000220235790654  -0.000043402050884 1
force C   0.000163225644022   0.000317393311040   0.000060474230593 1
force C   0.000005713506469   0.000140105646722   0.000023489652998 1
force C  -0.000130589824438   0.000033405924121  -0.000464813693020 1
force C   0.000038902411925   0.000031048268412   0.000093411730111 1
force C   0.000024512722154   0.000020337657272   0.000008267889919 1
force C   0.000003163667064   0.000071219282027   0.000227507681070 1
force C   0.000034535634042  -0.000036486771490   0.000256316530736 1
force C   0.000110062054731  -0.000241418525740  -0.000064428607512 1
force C   0.000022572509633  -0.000074935694606  -0.000008167433846 1
force C   0.000021863004123  -0.000045378558065  -0.000211257655410 1
force C   0.000079671496788  -0.000127131133764   0.000037188185751 1
force C  -0.000027180896837  -0.000189056847053  -0.000096192891707 1
force C   0.000088516775897  -0.000082198954309  -0.000009588680137 1
force C   0.000009524562214  -0.000065378936923  -0.000141224123073 1
force C   0.000049059660198   0.000057384687605  -0.000131607869477 1
force C   0.000140038342884   0.000130119898723   0.000053991142974 1
force C  -0.000070004729273  -0.000038421097430   0.000068352162125 1
force C  -0.000085368325777   0.000056414443418  -0.000026015881690 1
force C  -0.000148987955335   0.000128741116917  -0.000120706235410 1
force C   0.000022974219191   0.000029277117648  -0.000055260278076 1
force C   0.000014845964647   0.000024649045268  -0.000109334548495 1
force C  -0.000009592591588   0.000127465816610  -0.000161414333333 1
force C   0.000074561906253   0.000192468199556   0.000041395704527 1
force N   0.000038435754189   0.000020219506059   0.000408460080906 1
force N   0.000235458050041   0.000088873310815   0.000258528951333 1
force N   0.000225585426529   0.000182946751315   0.000232605286484 1
force N   0.000139190442724  -0.000006943716278   0.000407590312530 1
force Ti  -0.000595786264133  -0.000505917923185  -0.000041821179911 1
force O  -0.000028676844287   0.000267499617433   0.000177459287023 1
force O  -0.000306753975537   0.000018213572739   0.000471061303797 1
force O   0.000256411777149   0.000109055673983  -0.000444155424226 1
force H  -0.000190958414192   0.000256389507476  -0.000316398650683 1
force H  -0.000232419567761  -0.000157776532564  -0.000110674897712 1
force H   0.000004110700236  -0.000316855325108   0.000008975389174 1

# Energy components:
   A_diel =        0.0145101059935585
   Eewald =     1716.4965121847599221
       EH =     2034.4632224470358324
     Eloc =    -4306.8685302932926788
      Enl =       54.7509730177989340
     EvdW =       -0.0775828417267844
      Exc =     -113.3115975239633428
 Exc_core =        3.3745944665610659
       KE =      205.8638090835608239
  MuShift =        0.0090492442483949
-------------------------------------
     Etot =     -405.2850401090242372
       TS =        0.0003090126129971
-------------------------------------
        F =     -405.2853491216372390
      muN =      -37.1997709554348219
-------------------------------------
        G =     -368.0855781662024242


Dumping 'jdft.fillings' ... done
Dumping 'jdft.wfns' ... done
Dumping 'jdft.fluidState' ... done
Dumping 'jdft.ionpos' ... done
Dumping 'jdft.lattice' ... done
Dumping 'jdft.eigenvals' ... done
Dumping 'jdft.eigStats' ... 
	eMin: -2.297464 at state 0 ( [ +0.000000 +0.000000 +0.000000 ] spin 1 )
	HOMO: -0.168502 at state 13 ( [ +0.333333 +0.333333 +0.000000 ] spin -1 )
	mu  : -0.160200
	LUMO: -0.160070 at state 4 ( [ +0.333333 +0.333333 +0.000000 ] spin 1 )
	eMax: +0.016624 at state 13 ( [ +0.333333 +0.333333 +0.000000 ] spin -1 )
	HOMO-LUMO gap: +0.008433
	Optical gap  : +0.008433 at state 4 ( [ +0.333333 +0.333333 +0.000000 ] spin 1 )
Dumping 'jdft.Ecomponents' ... done
IonicMinimize: Iter:   1  G: -368.085578166202424  |grad|_K:  1.600e-04  alpha:  1.000e+00  linmin: -4.056e-01  t[s]:   2052.58

#--- Lowdin population analysis ---
# oxidation-state C +0.050 +0.063 +0.050 +0.055 +0.047 +0.053 +0.175 +0.135 +0.039 +0.046 +0.050 +0.178 +0.037 +0.053 +0.063 +0.143 +0.007 +0.053 +0.048 +0.049 +0.039 +0.038 +0.039 +0.039 +0.048 +0.046 +0.053 +0.006 +0.136 +0.063 +0.052 +0.037 +0.181 +0.049 +0.047 +0.038 +0.140 +0.174 +0.053 +0.046 +0.055 +0.049 +0.062 +0.051 +0.232
# magnetic-moments C +0.000 +0.000 -0.000 +0.000 +0.000 +0.000 -0.000 +0.000 +0.000 +0.000 +0.000 +0.000 +0.000 +0.000 +0.000 +0.000 -0.000 +0.000 -0.000 +0.000 +0.000 +0.000 +0.000 +0.000 -0.000 -0.000 +0.000 -0.000 +0.000 +0.000 +0.000 +0.000 +0.000 +0.000 +0.000 +0.000 +0.000 +0.000 +0.000 +0.000 +0.000 -0.000 +0.000 +0.000 +0.000
# oxidation-state N -0.294 -0.297 -0.309 -0.302
# magnetic-moments N +0.000 -0.000 +0.000 +0.000
# oxidation-state Ti +1.454
# magnetic-moments Ti +0.000
# oxidation-state O -0.370 -0.403 -0.672
# magnetic-moments O +0.000 -0.000 -0.000
# oxidation-state H +0.396 +0.485 +0.486
# magnetic-moments H -0.000 -0.000 -0.000


Computing DFT-D3 correction:
# coordination-number C 3.301 3.321 3.334 3.332 3.313 3.291 3.328 3.651 3.330 3.314 3.303 3.327 3.308 3.303 3.325 3.591 3.270 3.301 3.320 3.334 3.327 3.302 3.302 3.326 3.334 3.320 3.301 3.269 3.648 3.325 3.302 3.306 3.334 3.304 3.315 3.330 3.598 3.326 3.292 3.313 3.332 3.334 3.321 3.301 3.015
# coordination-number N 3.184 3.177 3.178 3.180
# coordination-number Ti 7.590
# coordination-number O 1.985 1.993 2.133
# coordination-number H 1.107 0.991 0.991
# diagonal-C6 C 24.27 24.07 23.93 23.95 24.15 24.36 23.99 19.72 23.98 24.14 24.25 24.00 24.21 24.26 24.02 20.39 24.55 24.27 24.09 23.93 24.01 24.27 24.26 24.02 23.93 24.09 24.27 24.56 19.75 24.02 24.26 24.22 23.93 24.24 24.14 23.97 20.30 24.02 24.36 24.15 23.95 23.93 24.07 24.27 25.64
# diagonal-C6 N 15.60 15.60 15.60 15.60
# diagonal-C6 Ti 321.59
# diagonal-C6 O 10.41 10.41 10.38
# diagonal-C6 H 3.06 3.09 3.09
EvdW_6 =   -0.044035
EvdW_8 =   -0.033548
Shifting auxilliary hamiltonian by -0.000007 to set nElectrons=232.208308

-------- Electronic minimization -----------
	Linear fluid (dielectric constant: 78.4, screening length: 8.12261 Bohr) occupying 0.710171 of unit cell:	Completed after 2 iterations at t[s]:   2120.18
	FillingsUpdate:  mu: -0.160200000  nElectrons: 232.208308  magneticMoment: [ Abs: 0.00020  Tot: +0.00014 ]
ElecMinimize: Iter:   0  G: -368.085581315092838  |grad|_K:  9.204e-08  alpha:  1.000e+00
	Linear fluid (dielectric constant: 78.4, screening length: 8.12261 Bohr) occupying 0.710171 of unit cell:	Completed after 3 iterations at t[s]:   2248.78
	Linear fluid (dielectric constant: 78.4, screening length: 8.12261 Bohr) occupying 0.710171 of unit cell:	Completed after 1 iterations at t[s]:   2295.35
	FillingsUpdate:  mu: -0.160200000  nElectrons: 232.207609  magneticMoment: [ Abs: 0.00018  Tot: +0.00013 ]
	SubspaceRotationAdjust: set factor to 0.503
ElecMinimize: Iter:   1  G: -368.085582632016951  |grad|_K:  4.660e-08  alpha:  7.090e-01  linmin:  8.802e-04  t[s]:   2357.69
	Linear fluid (dielectric constant: 78.4, screening length: 8.12261 Bohr) occupying 0.710171 of unit cell:	Completed after 2 iterations at t[s]:   2412.96
	Linear fluid (dielectric constant: 78.4, screening length: 8.12261 Bohr) occupying 0.710171 of unit cell:	Completed after 0 iterations at t[s]:   2457.86
	FillingsUpdate:  mu: -0.160200000  nElectrons: 232.208262  magneticMoment: [ Abs: 0.00016  Tot: +0.00012 ]
	SubspaceRotationAdjust: set factor to 0.385
ElecMinimize: Iter:   2  G: -368.085582855996563  |grad|_K:  4.974e-08  alpha:  4.615e-01  linmin:  2.588e-03  t[s]:   2521.00
	Linear fluid (dielectric constant: 78.4, screening length: 8.12261 Bohr) occupying 0.710171 of unit cell:	Completed after 2 iterations at t[s]:   2576.59
	Linear fluid (dielectric constant: 78.4, screening length: 8.12261 Bohr) occupying 0.710171 of unit cell:	Completed after 1 iterations at t[s]:   2623.21
	FillingsUpdate:  mu: -0.160200000  nElectrons: 232.207847  magneticMoment: [ Abs: 0.00015  Tot: +0.00011 ]
	SubspaceRotationAdjust: set factor to 0.227
ElecMinimize: Iter:   3  G: -368.085582922393314  |grad|_K:  3.211e-08  alpha:  2.127e-01  linmin:  1.372e-03  t[s]:   2685.99
	Linear fluid (dielectric constant: 78.4, screening length: 8.12261 Bohr) occupying 0.710171 of unit cell:	Completed after 0 iterations at t[s]:   2740.28
	Linear fluid (dielectric constant: 78.4, screening length: 8.12261 Bohr) occupying 0.710171 of unit cell:	Completed after 1 iterations at t[s]:   2786.09
	FillingsUpdate:  mu: -0.160200000  nElectrons: 232.208104  magneticMoment: [ Abs: 0.00014  Tot: +0.00010 ]
	SubspaceRotationAdjust: set factor to 0.174
ElecMinimize: Iter:   4  G: -368.085582980977847  |grad|_K:  1.295e-08  alpha:  4.019e-01  linmin: -7.276e-04  t[s]:   2848.63
ElecMinimize: Converged (|Delta G|<1.000000e-07 for 2 iters).
Setting wave functions to eigenvectors of Hamiltonian
Converging empty states (this may take a while): |deigs|: 1.693e-09

Computing DFT-D3 correction:
# coordination-number C 3.301 3.321 3.334 3.332 3.313 3.291 3.328 3.651 3.330 3.314 3.303 3.327 3.308 3.303 3.325 3.591 3.270 3.301 3.320 3.334 3.327 3.302 3.302 3.326 3.334 3.320 3.301 3.269 3.648 3.325 3.302 3.306 3.334 3.304 3.315 3.330 3.598 3.326 3.292 3.313 3.332 3.334 3.321 3.301 3.015
# coordination-number N 3.184 3.177 3.178 3.180
# coordination-number Ti 7.590
# coordination-number O 1.985 1.993 2.133
# coordination-number H 1.107 0.991 0.991
# diagonal-C6 C 24.27 24.07 23.93 23.95 24.15 24.36 23.99 19.72 23.98 24.14 24.25 24.00 24.21 24.26 24.02 20.39 24.55 24.27 24.09 23.93 24.01 24.27 24.26 24.02 23.93 24.09 24.27 24.56 19.75 24.02 24.26 24.22 23.93 24.24 24.14 23.97 20.30 24.02 24.36 24.15 23.95 23.93 24.07 24.27 25.64
# diagonal-C6 N 15.60 15.60 15.60 15.60
# diagonal-C6 Ti 321.59
# diagonal-C6 O 10.41 10.41 10.38
# diagonal-C6 H 3.06 3.09 3.09
EvdW_6 =   -0.044035
EvdW_8 =   -0.033548

# Ionic positions in cartesian coordinates:
ion C   0.076547157805202  -0.003114174852560  43.344084096138346 1
ion C  21.131791924854284   3.964887390935263  43.365444644474856 1
ion C  18.786424655150675   7.970882409852452  43.388932620942427 1
ion C  -6.964578265792322  11.968732957275218  43.382573194136349 1
ion C  -9.294664018514053  15.978505701548402  43.369492267251118 1
ion C   4.763686783435961   0.107995936421106   0.106274883699313 1
ion C   2.375993516808877   4.108908113185633   0.130101664362385 1
ion C  -0.026771953395211   7.952097052830422   0.138284812903365 1
ion C  -2.349826923186939  11.964266045842264  43.379215521090941 1
ion C  -4.647479682080026  15.988682722180917  43.361530476155643 1
ion C   9.453201675385376   0.010439742971256  43.332390625050749 1
ion C   7.166521329828286   4.117656462177042   0.144893482399629 1
ion C   0.042166096543404  15.904447055983105   0.083495275088885 1
ion C   2.426640138831313  19.856660160900265  43.343652226541593 1
ion C  11.841912408431597   3.953842593858234  43.355970732439033 1
ion C   9.554869721309409   7.936912810350054   0.159795758192340 1
ion C   4.749107246067616  15.760577118134448   0.151889733879979 1
ion C   7.079186561134167  19.857589290338503  43.360104517388308 1
ion C  16.487472485368965   3.939731943233564  43.364441799899211 1
ion C  14.179921765900614   7.962179373715056  43.375788521125791 1
ion C  11.853438383387733  11.960616169450356  43.396604796877142 1
ion C   9.447807832691705  15.891140060995793   0.119890151642834 1
ion C   0.065508169931292   2.682136620543314   0.092550846723345 1
ion C  -2.335057598590710   6.622405290889246  43.386831955855925 1
ion C  -4.657300154489790  10.624261202548741  43.389131248777311 1
ion C  -6.968630652647035  14.645625529520171  43.374190628326289 1
ion C  -9.295026702881701  18.666038598164747  43.355878860605117 1
ion C   4.766517548189174   2.825412972398644   0.135619386262907 1
ion C  -0.032548986877575  10.650195965294774   0.125964236930523 1
ion C  -2.324391579480056  14.635872387693643  43.360700660095866 1
ion C  -4.642629927841524  18.674200426574313  43.350452179983691 1
ion C   9.472362896585613   2.690237097211702   0.089286351323017 1
ion C   2.348309202961671  14.482938015686180   0.133390757260151 1
ion C   0.061497797750549  18.583340598832727  43.329016755050688 1
ion C  14.165502062582449   2.599422775529844  43.351569390644279 1
ion C  11.871207786043772   6.624224825905054  43.373290106301980 1
ion C   9.545842978752216  10.631865652096353   0.179451801324766 1
ion C   7.136314899736480  14.462281343013048   0.175949101268087 1
ion C   4.753576749810810  18.478251401342693   0.111009100236899 1
ion C  18.812788511636736   2.603853269060578  43.361569719715249 1
ion C  16.485610851886364   6.616649703300988  43.375055919286908 1
ion C  14.171102614970520  10.632365807400568  43.383669408353697 1
ion C  11.821647820579948  14.634612633753363  43.384335381650160 1
ion C   9.437107396272545  18.577232210367630  43.352837834653130 1
ion C   4.252203015484993  10.029996797611618   5.422066408262652 1
ion N   2.240917092663008  11.899735961580122   0.194346470636898 1
ion N   7.253653869376819  11.857995347976097   0.278849492399975 1
ion N   2.263037916684747   6.711296458484481   0.195176649216484 1
ion N   7.282007327324938   6.701190851246021   0.232114541697846 1
ion Ti   4.704366862460122   9.297289223366146   1.639509527152315 1
ion O   3.499007229793408  10.767069380149925   7.610662406180756 1
ion O   6.201959839581848   8.632793263049866   5.120914803926648 1
ion O  -0.117604479104860  13.716439228561521   6.886604165740885 1
ion H   1.900888925131395  11.999852293678197   7.372938474374809 1
ion H   0.269957640317941  15.411541932625418   7.561989476877828 1
ion H  -1.713668764562700  13.211223997215884   7.706919151223603 1

# Forces in Cartesian coordinates:
force C  -0.000080515244489   0.000313512602715  -0.000139793322548 1
force C   0.000028534823299  -0.000058154320714  -0.000005983524804 1
force C  -0.000020424062621  -0.000130643387765  -0.000341742731885 1
force C  -0.000003949987343   0.000069071410849  -0.000149234464925 1
force C  -0.000112956772330   0.000113178888226   0.000016333430114 1
force C  -0.000060178784219   0.000114771902807   0.000094874834085 1
force C   0.000071868043060   0.000190375909556   0.000151531041060 1
force C   0.000063948043249  -0.000078987817285   0.000245859001084 1
force C   0.000014032111069  -0.000234935387183  -0.000138773289507 1
force C   0.000133250726714  -0.000102430964373  -0.000024506120010 1
force C   0.000066469166341  -0.000076864611914  -0.000157899951816 1
force C   0.000023437890437   0.000109112906506   0.000108459693903 1
force C   0.000077455723813  -0.000111980485585  -0.000051788083399 1
force C   0.000002387775463  -0.000065489671054   0.000117165951453 1
force C   0.000106640838248  -0.000174026976293  -0.000212960988545 1
force C   0.000087992491081   0.000014327279530  -0.000117931046337 1
force C   0.000104142729730   0.000068862479740   0.000119945699166 1
force C  -0.000050361460249   0.000075893999665  -0.000131335590934 1
force C   0.000019971084745  -0.000041561853950   0.000081102035360 1
force C  -0.000089481308907  -0.000086183084052  -0.000088077611697 1
force C  -0.000075973700203   0.000053865608034   0.000002118655934 1
force C  -0.000037010779994   0.000259145544453  -0.000061695216279 1
force C   0.000036098818812   0.000208214374785   0.000038202910735 1
force C  -0.000020554781990   0.000311476767332   0.000011925721663 1
force C  -0.000071689015750   0.000052928863391  -0.000431305628759 1
force C   0.000060020530860  -0.000033859774430   0.000071738903855 1
force C   0.000066716673613  -0.000016558926498   0.000001675471270 1
force C   0.000113731063044  -0.000102154449471   0.000200932253499 1
force C   0.000014036308302   0.000088686269417   0.000240274019477 1
force C   0.000047685877273  -0.000111934658931  -0.000066702920376 1
force C   0.000047751964443  -0.000075618353324  -0.000012672281875 1
force C   0.000084920376121  -0.000055093416882  -0.000204497082888 1
force C   0.000072545125191  -0.000099441242600   0.000078234982908 1
force C  -0.000027103055078  -0.000160030033831  -0.000081060036662 1
force C  -0.000033913588842  -0.000052435655812   0.000001945831880 1
force C  -0.000017785724855   0.000056456274182  -0.000160369063879 1
force C   0.000199912271359  -0.000019464295675  -0.000105562244905 1
force C   0.000082285030946  -0.000062442614262   0.000090918019263 1
force C  -0.000071563083161  -0.000169455337807   0.000067845747177 1
force C  -0.000033273511185   0.000108273236846  -0.000028381481805 1
force C  -0.000055175819174   0.000125865767469  -0.000119875326872 1
force C  -0.000065734808528   0.000060558449185  -0.000052052437221 1
force C   0.000196621095925   0.000015651437960  -0.000080994436419 1
force C   0.000081513847751   0.000145136673905  -0.000166651342927 1
force C   0.000255506447574   0.000020414359063  -0.000134188123239 1
force N   0.000032768879194  -0.000077505775226   0.000366538793344 1
force N   0.000089381593985   0.000210603673969   0.000234910853186 1
force N   0.000122720496481   0.000137078746241   0.000172684385556 1
force N   0.000073430677340  -0.000179858822411   0.000351172371364 1
force Ti  -0.000241115072434  -0.000081398876267   0.000358230343658 1
force O  -0.000152029747333   0.000373029765547   0.000285705552176 1
force O  -0.000306785835330   0.000027543049244   0.000393839176108 1
force O   0.000135776031943   0.000439527030350  -0.000223231681786 1
force H  -0.000157733738772   0.000245033727035  -0.000277611718081 1
force H  -0.000283247505235  -0.000494431436340  -0.000261610462971 1
force H   0.000129204967959  -0.000306594446100  -0.000069690541757 1

# Energy components:
   A_diel =        0.0144900004173611
   Eewald =     1716.5007627735255937
       EH =     2034.4657598419917122
     Eloc =    -4306.8751309819717790
      Enl =       54.7509972440246813
     EvdW =       -0.0775832158865060
      Exc =     -113.3113653319252592
 Exc_core =        3.3745956214054358
       KE =      205.8634101477647960
  MuShift =        0.0090515730774447
-------------------------------------
     Etot =     -405.2850123275766236
       TS =        0.0003089692967017
-------------------------------------
        F =     -405.2853212968733487
      muN =      -37.1997383158955159
-------------------------------------
        G =     -368.0855829809778470


Dumping 'jdft.fillings' ... done
Dumping 'jdft.wfns' ... done
Dumping 'jdft.fluidState' ... done
Dumping 'jdft.ionpos' ... done
Dumping 'jdft.lattice' ... done
Dumping 'jdft.eigenvals' ... done
Dumping 'jdft.eigStats' ... 
	eMin: -2.297432 at state 0 ( [ +0.000000 +0.000000 +0.000000 ] spin 1 )
	HOMO: -0.168513 at state 13 ( [ +0.333333 +0.333333 +0.000000 ] spin -1 )
	mu  : -0.160200
	LUMO: -0.160067 at state 4 ( [ +0.333333 +0.333333 +0.000000 ] spin 1 )
	eMax: +0.016623 at state 13 ( [ +0.333333 +0.333333 +0.000000 ] spin -1 )
	HOMO-LUMO gap: +0.008446
	Optical gap  : +0.008446 at state 4 ( [ +0.333333 +0.333333 +0.000000 ] spin 1 )
Dumping 'jdft.Ecomponents' ... done
IonicMinimize: Iter:   2  G: -368.085582980977847  |grad|_K:  1.549e-04  alpha:  1.000e+00  linmin: -5.748e-01  t[s]:   3003.06

#--- Lowdin population analysis ---
# oxidation-state C +0.050 +0.063 +0.050 +0.055 +0.047 +0.053 +0.175 +0.135 +0.039 +0.046 +0.050 +0.178 +0.037 +0.053 +0.063 +0.143 +0.007 +0.053 +0.048 +0.049 +0.039 +0.039 +0.039 +0.039 +0.048 +0.046 +0.053 +0.006 +0.136 +0.063 +0.052 +0.037 +0.181 +0.049 +0.047 +0.038 +0.140 +0.174 +0.053 +0.046 +0.055 +0.049 +0.062 +0.050 +0.232
# magnetic-moments C +0.000 +0.000 -0.000 +0.000 +0.000 +0.000 -0.000 +0.000 +0.000 +0.000 +0.000 +0.000 +0.000 +0.000 +0.000 +0.000 -0.000 +0.000 -0.000 -0.000 +0.000 +0.000 +0.000 +0.000 -0.000 -0.000 +0.000 -0.000 +0.000 +0.000 +0.000 +0.000 +0.000 +0.000 +0.000 +0.000 +0.000 +0.000 +0.000 +0.000 +0.000 -0.000 +0.000 +0.000 +0.000
# oxidation-state N -0.294 -0.298 -0.309 -0.302
# magnetic-moments N +0.000 -0.000 +0.000 +0.000
# oxidation-state Ti +1.454
# magnetic-moments Ti +0.000
# oxidation-state O -0.370 -0.403 -0.672
# magnetic-moments O +0.000 -0.000 -0.000
# oxidation-state H +0.396 +0.484 +0.486
# magnetic-moments H -0.000 -0.000 +0.000


Computing DFT-D3 correction:
# coordination-number C 3.301 3.321 3.334 3.332 3.313 3.291 3.329 3.653 3.330 3.314 3.303 3.327 3.308 3.303 3.325 3.590 3.270 3.301 3.320 3.334 3.327 3.302 3.302 3.326 3.334 3.319 3.301 3.269 3.650 3.325 3.302 3.306 3.335 3.304 3.315 3.330 3.597 3.326 3.292 3.313 3.332 3.334 3.321 3.301 3.015
# coordination-number N 3.185 3.177 3.178 3.180
# coordination-number Ti 7.590
# coordination-number O 1.985 1.993 2.134
# coordination-number H 1.108 0.991 0.991
# diagonal-C6 C 24.27 24.07 23.93 23.95 24.16 24.36 23.99 19.70 23.98 24.14 24.25 24.00 24.21 24.26 24.02 20.40 24.55 24.27 24.09 23.93 24.01 24.27 24.26 24.02 23.93 24.09 24.27 24.56 19.74 24.02 24.26 24.22 23.92 24.24 24.14 23.97 20.32 24.02 24.36 24.16 23.95 23.93 24.07 24.28 25.64
# diagonal-C6 N 15.60 15.60 15.60 15.60
# diagonal-C6 Ti 321.59
# diagonal-C6 O 10.41 10.41 10.38
# diagonal-C6 H 3.06 3.09 3.09
EvdW_6 =   -0.044037
EvdW_8 =   -0.033549
Shifting auxilliary hamiltonian by -0.000007 to set nElectrons=232.208104

-------- Electronic minimization -----------
	Linear fluid (dielectric constant: 78.4, screening length: 8.12261 Bohr) occupying 0.710177 of unit cell:	Completed after 4 iterations at t[s]:   3071.52
	FillingsUpdate:  mu: -0.160200000  nElectrons: 232.208104  magneticMoment: [ Abs: 0.00010  Tot: +0.00007 ]
ElecMinimize: Iter:   0  G: -368.085581616746310  |grad|_K:  2.588e-07  alpha:  1.000e+00
	Linear fluid (dielectric constant: 78.4, screening length: 8.12261 Bohr) occupying 0.710177 of unit cell:	Completed after 3 iterations at t[s]:   3200.25
	Linear fluid (dielectric constant: 78.4, screening length: 8.12261 Bohr) occupying 0.710177 of unit cell:	Completed after 2 iterations at t[s]:   3246.72
	FillingsUpdate:  mu: -0.160200000  nElectrons: 232.208642  magneticMoment: [ Abs: 0.00009  Tot: +0.00007 ]
	SubspaceRotationAdjust: set factor to 0.189
ElecMinimize: Iter:   1  G: -368.085592137655226  |grad|_K:  1.050e-07  alpha:  7.195e-01  linmin:  6.304e-04  t[s]:   3309.97
	Linear fluid (dielectric constant: 78.4, screening length: 8.12261 Bohr) occupying 0.710176 of unit cell:	Completed after 3 iterations at t[s]:   3366.52
	Linear fluid (dielectric constant: 78.4, screening length: 8.12261 Bohr) occupying 0.710176 of unit cell:	Completed after 0 iterations at t[s]:   3412.15
	FillingsUpdate:  mu: -0.160200000  nElectrons: 232.207926  magneticMoment: [ Abs: 0.00009  Tot: +0.00007 ]
	SubspaceRotationAdjust: set factor to 0.202
ElecMinimize: Iter:   2  G: -368.085593532430323  |grad|_K:  8.468e-08  alpha:  5.791e-01  linmin:  1.569e-03  t[s]:   3475.31
	Linear fluid (dielectric constant: 78.4, screening length: 8.12261 Bohr) occupying 0.710176 of unit cell:	Completed after 1 iterations at t[s]:   3530.09
	Linear fluid (dielectric constant: 78.4, screening length: 8.12261 Bohr) occupying 0.710176 of unit cell:	Completed after 0 iterations at t[s]:   3574.35
	FillingsUpdate:  mu: -0.160200000  nElectrons: 232.208144  magneticMoment: [ Abs: 0.00009  Tot: +0.00006 ]
	SubspaceRotationAdjust: set factor to 0.241
ElecMinimize: Iter:   3  G: -368.085594328327602  |grad|_K:  5.077e-08  alpha:  5.410e-01  linmin: -1.260e-03  t[s]:   3637.67
	Linear fluid (dielectric constant: 78.4, screening length: 8.12261 Bohr) occupying 0.710176 of unit cell:	Completed after 2 iterations at t[s]:   3693.70
	Linear fluid (dielectric constant: 78.4, screening length: 8.12261 Bohr) occupying 0.710176 of unit cell:	Completed after 0 iterations at t[s]:   3738.38
	FillingsUpdate:  mu: -0.160200000  nElectrons: 232.207734  magneticMoment: [ Abs: 0.00008  Tot: +0.00006 ]
	SubspaceRotationAdjust: set factor to 0.327
ElecMinimize: Iter:   4  G: -368.085594782102021  |grad|_K:  3.795e-08  alpha:  7.446e-01  linmin: -1.257e-03  t[s]:   3803.17
	Linear fluid (dielectric constant: 78.4, screening length: 8.12261 Bohr) occupying 0.710176 of unit cell:	Completed after 0 iterations at t[s]:   3857.14
	Linear fluid (dielectric constant: 78.4, screening length: 8.12261 Bohr) occupying 0.710176 of unit cell:	Completed after 0 iterations at t[s]:   3901.51
	FillingsUpdate:  mu: -0.160200000  nElectrons: 232.207578  magneticMoment: [ Abs: 0.00007  Tot: +0.00005 ]
	SubspaceRotationAdjust: set factor to 0.417
ElecMinimize: Iter:   5  G: -368.085595067744521  |grad|_K:  3.203e-08  alpha:  8.347e-01  linmin: -4.581e-06  t[s]:   3964.80
	Linear fluid (dielectric constant: 78.4, screening length: 8.12261 Bohr) occupying 0.710176 of unit cell:	Completed after 1 iterations at t[s]:   4019.85
	Linear fluid (dielectric constant: 78.4, screening length: 8.12261 Bohr) occupying 0.710176 of unit cell:	Completed after 0 iterations at t[s]:   4064.52
	FillingsUpdate:  mu: -0.160200000  nElectrons: 232.207606  magneticMoment: [ Abs: 0.00006  Tot: +0.00005 ]
	SubspaceRotationAdjust: set factor to 0.468
ElecMinimize: Iter:   6  G: -368.085595186586318  |grad|_K:  2.342e-08  alpha:  6.060e-01  linmin: -8.946e-04  t[s]:   4127.75
	Linear fluid (dielectric constant: 78.4, screening length: 8.12261 Bohr) occupying 0.710176 of unit cell:	Completed after 0 iterations at t[s]:   4181.59
[...]
ElecMinimize: 	Step failed: resetting search direction.
	FillingsUpdate:  mu: -0.160200000  nElectrons: 232.200892  magneticMoment: [ Abs: 0.00001  Tot: -0.00000 ]
	SubspaceRotationAdjust: set factor to 0.14
ElecMinimize: Iter:   9  G: -368.085932708125142  |grad|_K:  1.551e-08  alpha:  9.233e-05
	Linear fluid (dielectric constant: 78.4, screening length: 8.12261 Bohr) occupying 0.710443 of unit cell:	Completed after 0 iterations at t[s]:  73848.33
ElecMinimize: 	Predicted alpha/alphaT>3.000000, increasing alphaT to 4.733318e-01.
	Linear fluid (dielectric constant: 78.4, screening length: 8.12261 Bohr) occupying 0.710443 of unit cell:	Completed after 0 iterations at t[s]:  73891.66
	Linear fluid (dielectric constant: 78.4, screening length: 8.12261 Bohr) occupying 0.710443 of unit cell:	Completed after 1 iterations at t[s]:  73935.08
ElecMinimize: 	Step increased G by 1.548852e-08, reducing alpha to 6.788030e-02.
	Linear fluid (dielectric constant: 78.4, screening length: 8.12261 Bohr) occupying 0.710443 of unit cell:	Completed after 0 iterations at t[s]:  74032.88
	FillingsUpdate:  mu: -0.160200000  nElectrons: 232.200844  magneticMoment: [ Abs: 0.00001  Tot: -0.00000 ]
	SubspaceRotationAdjust: set factor to 0.094
ElecMinimize: Iter:  10  G: -368.085932733406366  |grad|_K:  1.253e-08  alpha:  6.788e-02  linmin:  7.295e-03  t[s]:  74092.55
	Linear fluid (dielectric constant: 78.4, screening length: 8.12261 Bohr) occupying 0.710443 of unit cell:	Completed after 0 iterations at t[s]:  74143.51
ElecMinimize: 	Predicted alpha/alphaT>3.000000, increasing alphaT to 2.036409e-01.
	Linear fluid (dielectric constant: 78.4, screening length: 8.12261 Bohr) occupying 0.710443 of unit cell:	Completed after 0 iterations at t[s]:  74187.39
	Linear fluid (dielectric constant: 78.4, screening length: 8.12261 Bohr) occupying 0.710443 of unit cell:	Completed after 0 iterations at t[s]:  74229.91
ElecMinimize: 	Step increased G by 4.450726e-09, reducing alpha to 8.713894e-03.
	Linear fluid (dielectric constant: 78.4, screening length: 8.12261 Bohr) occupying 0.710443 of unit cell:	Completed after 0 iterations at t[s]:  74328.17
ElecMinimize: 	Step increased G by 7.109293e-09, reducing alpha to 8.713894e-04.
	Linear fluid (dielectric constant: 78.4, screening length: 8.12261 Bohr) occupying 0.710443 of unit cell:	Completed after 0 iterations at t[s]:  74425.55
ElecMinimize: 	Step increased G by 7.448818e-09, reducing alpha to 8.713894e-05.
ElecMinimize: 	Step failed to reduce G after 3 attempts. Quitting step.
ElecMinimize: 	Undoing step.
	Linear fluid (dielectric constant: 78.4, screening length: 8.12261 Bohr) occupying 0.710443 of unit cell:	Completed after 0 iterations at t[s]:  74522.74
ElecMinimize: 	Step failed: resetting search direction.
	FillingsUpdate:  mu: -0.160200000  nElectrons: 232.200844  magneticMoment: [ Abs: 0.00001  Tot: -0.00000 ]
	SubspaceRotationAdjust: set factor to 0.129
ElecMinimize: Iter:  11  G: -368.085932725995463  |grad|_K:  1.064e-08  alpha:  8.714e-05
	Linear fluid (dielectric constant: 78.4, screening length: 8.12261 Bohr) occupying 0.710443 of unit cell:	Completed after 0 iterations at t[s]:  74632.50
ElecMinimize: 	Predicted alpha/alphaT>3.000000, increasing alphaT to 2.036409e-01.
	Linear fluid (dielectric constant: 78.4, screening length: 8.12261 Bohr) occupying 0.710443 of unit cell:	Completed after 0 iterations at t[s]:  74674.31
ElecMinimize: 	Predicted alpha/alphaT>3.000000, increasing alphaT to 6.109227e-01.
	Linear fluid (dielectric constant: 78.4, screening length: 8.12261 Bohr) occupying 0.710443 of unit cell:	Completed after 1 iterations at t[s]:  74717.97
	Linear fluid (dielectric constant: 78.4, screening length: 8.12261 Bohr) occupying 0.710443 of unit cell:	Completed after 0 iterations at t[s]:  74760.41
ElecMinimize: 	Step increased G by 1.314015e-08, reducing alpha to 1.276175e-02.
	Linear fluid (dielectric constant: 78.4, screening length: 8.12261 Bohr) occupying 0.710443 of unit cell:	Completed after 0 iterations at t[s]:  74857.53
ElecMinimize: 	Step increased G by 8.469101e-09, reducing alpha to 1.276175e-03.
	Linear fluid (dielectric constant: 78.4, screening length: 8.12261 Bohr) occupying 0.710443 of unit cell:	Completed after 0 iterations at t[s]:  74954.99
ElecMinimize: 	Step increased G by 8.142422e-09, reducing alpha to 1.276175e-04.
ElecMinimize: 	Step failed to reduce G after 3 attempts. Quitting step.
ElecMinimize: 	Undoing step.
	Linear fluid (dielectric constant: 78.4, screening length: 8.12261 Bohr) occupying 0.710443 of unit cell:	Completed after 0 iterations at t[s]:  75052.24
ElecMinimize: 	Step failed along negative gradient direction.
ElecMinimize: Probably at roundoff error limit. (Stopping)
Setting wave functions to eigenvectors of Hamiltonian
Converging empty states (this may take a while): |deigs|: 2.829e-09

Computing DFT-D3 correction:
# coordination-number C 3.301 3.320 3.333 3.332 3.313 3.291 3.325 3.632 3.330 3.314 3.303 3.325 3.307 3.302 3.325 3.582 3.269 3.301 3.319 3.334 3.326 3.301 3.302 3.325 3.334 3.319 3.301 3.268 3.630 3.325 3.302 3.306 3.333 3.304 3.314 3.330 3.591 3.325 3.291 3.313 3.332 3.334 3.321 3.300 3.016
# coordination-number N 3.184 3.176 3.177 3.179
# coordination-number Ti 7.526
# coordination-number O 1.985 1.990 2.134
# coordination-number H 1.107 0.991 0.991
# diagonal-C6 C 24.28 24.08 23.94 23.96 24.16 24.37 24.02 19.92 23.98 24.14 24.25 24.03 24.21 24.26 24.03 20.50 24.56 24.28 24.09 23.93 24.02 24.27 24.27 24.02 23.93 24.09 24.27 24.57 19.94 24.02 24.26 24.22 23.94 24.24 24.14 23.98 20.38 24.02 24.36 24.16 23.96 23.94 24.07 24.28 25.64
# diagonal-C6 N 15.60 15.60 15.60 15.60
# diagonal-C6 Ti 321.59
# diagonal-C6 O 10.41 10.41 10.38
# diagonal-C6 H 3.06 3.09 3.09
EvdW_6 =   -0.044280
EvdW_8 =   -0.033614

# Ionic positions in cartesian coordinates:
ion C   0.085266456067566  -0.005592441224699  43.360894895181410 1
ion C  21.140267952698235   3.960587694244995  43.364636034825352 1
ion C  18.793340503814360   7.965096680137383  43.317481136922432 1
ion C  -6.958199522885083  11.963047942157894  43.302403838852065 1
ion C  -9.286929645492251  15.974272267036730  43.348056800993305 1
ion C   4.771970023935308   0.103951717008088   0.131160416875274 1
ion C   2.385723236773657   4.108033358692626   0.205463816250384 1
ion C  -0.019685120166851   7.947847619772004   0.186921143634116 1
ion C  -2.342668172261983  11.957241007607140  43.352820117791111 1
ion C  -4.639740891616045  15.982297932385618  43.331869455807627 1
ion C   9.461497263591545   0.003123704633320  43.331564147557259 1
ion C   7.176590452019787   4.112017951078470   0.203729394103778 1
ion C   0.050609096840819  15.895693866467747   0.096198217881609 1
ion C   2.434833774169993  19.848366224045982  43.339425265176310 1
ion C  11.850384845505724   3.946131310858472  43.333280738808035 1
ion C   9.564284038075217   7.930669452321570   0.187514707384515 1
ion C   4.757846205775488  15.753344415355203   0.201497864776155 1
ion C   7.087006657562027  19.851985981821372  43.361295651548879 1
ion C  16.495290618851321   3.933131026570826  43.315260719467979 1
ion C  14.186377656598241   7.955741216040131  43.299275732903979 1
ion C  11.860544730883539  11.955303540341820  43.370239207341641 1
ion C   9.456145560931841  15.886642747789091   0.136135932883073 1
ion C   0.075229591011800   2.680323929229146   0.126857949270474 1
ion C  -2.326849087236044   6.618342188621325  43.372736573685771 1
ion C  -4.651002657592333  10.618157672148971  43.313509823511190 1
ion C  -6.961537385865152  14.640163838094550  43.326607737225238 1
ion C  -9.286758868056312  18.662395597528977  43.365482782442697 1
ion C   4.775585401663131   2.821643744870836   0.200648539452719 1
ion C  -0.026054894957070  10.644561231766817   0.167743979739381 1
ion C  -2.316695140666711  14.628606155383121  43.342428500019651 1
ion C  -4.634942096361722  18.668210593812422  43.349481547335010 1
ion C   9.480890518155190   2.683401861563433   0.098878657330631 1
ion C   2.356594115602705  14.474262885253678   0.189099243269131 1
ion C   0.069714367797671  18.574870541037640  43.328189092946872 1
ion C  14.174082074848428   2.591553384665320  43.319033224481458 1
ion C  11.878514155625702   6.617208517144983  43.341152070021060 1
ion C   9.555058235823292  10.625701342316619   0.203580595250622 1
ion C   7.145536848341870  14.456641239098932   0.224763941222670 1
ion C   4.761922208649983  18.470804726170758   0.125742250790651 1
ion C  18.821309273042548   2.598548802040202  43.339412737509619 1
ion C  16.492618256958309   6.610464727720500  43.294977628993863 1
ion C  14.177455128109703  10.626476816122002  43.310434783611086 1
ion C  11.829871197349719  14.630038097408157  43.372315815786202 1
ion C   9.445788600023278  18.573325877433309  43.362586717775166 1
ion C   4.249878599515521  10.085075859386700   5.505432010570027 1
ion N   2.246481300483976  11.891627084043566   0.284923312734537 1
ion N   7.263619590328493  11.851833605543799   0.347595103176022 1
ion N   2.271075577517196   6.711325503527732   0.299416724230834 1
ion N   7.293463223423630   6.694660296311896   0.321005362395906 1
ion Ti   4.724187148872415   9.299402322650105   1.741925684070847 1
ion O   3.482072705013921  10.900258653506905   7.661309256547153 1
ion O   6.176702673940733   8.648601882601781   5.256084349786258 1
ion O  -0.188815456880696  13.723323305560905   6.731052503028355 1
ion H   1.881567660671672  12.114110588749186   7.346827791995053 1
ion H   0.059504708638626  15.445900160764323   7.400432384988187 1
ion H  -1.777416295465875  13.122727752780033   7.499901087840291 1

# Forces in Cartesian coordinates:
force C   0.000001239445179   0.000078937508957   0.000101263649343 1
force C   0.000007753697116  -0.000120594361617   0.000069544905811 1
force C   0.000049167085236  -0.000045928256680   0.000079287259492 1
force C   0.000033621472816   0.000044530654382   0.000111159555752 1
force C  -0.000076767528351   0.000021803582590  -0.000010831400845 1
force C  -0.000037926403824   0.000034993813080  -0.000013853211321 1
force C   0.000043407375911   0.000097094010288  -0.000070364303276 1
force C   0.000059065556340  -0.000129841968554  -0.000075719283574 1
force C   0.000041357726170  -0.000029231922983  -0.000010748239610 1
force C   0.000040661193961  -0.000005842794022   0.000115694933396 1
force C   0.000024083097016  -0.000030798327661   0.000084739198675 1
force C  -0.000070987562841   0.000020829844679   0.000034311365713 1
force C   0.000052540462597  -0.000049292973957   0.000006500938886 1
force C   0.000046125586900   0.000062767723748   0.000097009470150 1
force C   0.000025842672101   0.000037641251481   0.000040174799174 1
force C  -0.000125984422499  -0.000004371558997  -0.000039574821138 1
force C   0.000016466056139   0.000048713985925  -0.000059726677680 1
force C   0.000085598849983   0.000054000445372   0.000067849687996 1
force C   0.000095242778763   0.000039588301759  -0.000019284272126 1
force C   0.000114627384250   0.000084891728222   0.000177639391451 1
force C  -0.000060228680991   0.000045205517497  -0.000009835013528 1
force C   0.000009854025674   0.000059809216775   0.000096222081943 1
force C  -0.000048784527330   0.000140599503709   0.000043897408776 1
force C   0.000016683824279   0.000118251208698   0.000003455423421 1
force C   0.000111126319472   0.000041665156238   0.000067944871664 1
force C   0.000144265937617  -0.000001039227240  -0.000028128956188 1
force C   0.000025637892567   0.000002146938181   0.000037096546211 1
force C   0.000058491014333  -0.000113501910527  -0.000027535349097 1
force C   0.000053226200920   0.000045465247734  -0.000081551812930 1
force C   0.000026744451145   0.000095613297264   0.000070484595335 1
force C   0.000100512733533   0.000005460966174   0.000085543223268 1
force C   0.000080799861914  -0.000003935890391   0.000073263576810 1
force C   0.000012457492752  -0.000143945703460  -0.000115290955042 1
force C  -0.000003445524754  -0.000007149651578   0.000096288175680 1
force C  -0.000141098489000   0.000021678145708   0.000091486576524 1
force C  -0.000005188430013   0.000049949635778  -0.000012172802361 1
force C  -0.000030325999628  -0.000046223780101  -0.000082117291221 1
force C   0.000008723359545  -0.000020337450606   0.000042883013738 1
force C  -0.000045118397491  -0.000025473003928  -0.000019943839879 1
force C  -0.000072006749954   0.000066904311761   0.000044698921804 1
force C   0.000017101880273   0.000056255170854   0.000108278824076 1
force C   0.000013369728959  -0.000009905727424   0.000174274243921 1
force C   0.000063118681507  -0.000020805628296  -0.000017951030613 1
force C   0.000018548587270   0.000113368040945   0.000078622462298 1
force C   0.000134572065744   0.000139807067558   0.000062386929215 1
force N  -0.000098905934856  -0.000057874255601  -0.000098578964291 1
force N   0.000228152621910   0.000155230925935  -0.000059623326216 1
force N  -0.000117477782862   0.000000184910505  -0.000054303767548 1
force N   0.000129629579086  -0.000116062769442  -0.000033533199175 1
force Ti   0.000123391815957  -0.000148419127283   0.000035430835305 1
force O  -0.000094138002960   0.000082270772946  -0.000101639357458 1
force O   0.000064375043107   0.000234766657288   0.000071323392754 1
force O   0.000136093386926   0.000161238253624  -0.000255552732277 1
force H  -0.000270228765810   0.000029812801706  -0.000104131713274 1
force H   0.000068973738386  -0.000187753438858  -0.000070030563001 1
force H  -0.000115942477695  -0.000113337352543  -0.000108527625306 1

# Energy components:
   A_diel =        0.0142693504951525
   Eewald =     1716.1866854601180421
       EH =     2033.9103276766229556
     Eloc =    -4305.9814016799700767
      Enl =       54.7461075986896475
     EvdW =       -0.0778938301612885
      Exc =     -113.3000216481114961
 Exc_core =        3.3745593394782931
       KE =      205.8340348787046139
  MuShift =        0.0091345625497528
-------------------------------------
     Etot =     -405.2841982915842891
       TS =        0.0003096091158399
-------------------------------------
        F =     -405.2845079007001345
      muN =      -37.1985751827992175
-------------------------------------
        G =     -368.0859327179009028


Dumping 'jdft.fillings' ... done
Dumping 'jdft.wfns' ... done
Dumping 'jdft.fluidState' ... done
Dumping 'jdft.ionpos' ... done
Dumping 'jdft.lattice' ... done
Dumping 'jdft.eigenvals' ... done
Dumping 'jdft.eigStats' ... 
	eMin: -2.298130 at state 7 ( [ -0.333333 +0.333333 +0.000000 ] spin 1 )
	HOMO: -0.168496 at state 17 ( [ -0.333333 -0.333333 +0.000000 ] spin -1 )
	mu  : -0.160200
	LUMO: -0.159959 at state 13 ( [ +0.333333 +0.333333 +0.000000 ] spin -1 )
	eMax: +0.016709 at state 17 ( [ -0.333333 -0.333333 +0.000000 ] spin -1 )
	HOMO-LUMO gap: +0.008536
	Optical gap  : +0.008537 at state 17 ( [ -0.333333 -0.333333 +0.000000 ] spin -1 )
Dumping 'jdft.Ecomponents' ... done
IonicMinimize: Iter:  31  G: -368.085932717900903  |grad|_K:  8.370e-05  alpha:  1.000e+00  linmin: -2.640e-01  t[s]:  75256.33
IonicMinimize: Converged (|grad|_K<1.000000e-04).

#--- Lowdin population analysis ---
# oxidation-state C +0.050 +0.063 +0.050 +0.055 +0.046 +0.053 +0.175 +0.136 +0.039 +0.046 +0.050 +0.178 +0.038 +0.053 +0.063 +0.143 +0.007 +0.053 +0.048 +0.049 +0.039 +0.039 +0.039 +0.039 +0.048 +0.046 +0.053 +0.006 +0.138 +0.064 +0.052 +0.037 +0.181 +0.049 +0.047 +0.038 +0.140 +0.174 +0.053 +0.046 +0.055 +0.049 +0.062 +0.050 +0.233
# magnetic-moments C -0.000 -0.000 -0.000 -0.000 -0.000 -0.000 -0.000 -0.000 -0.000 -0.000 -0.000 -0.000 +0.000 -0.000 -0.000 +0.000 -0.000 -0.000 -0.000 -0.000 -0.000 -0.000 -0.000 -0.000 -0.000 -0.000 -0.000 -0.000 +0.000 +0.000 -0.000 -0.000 +0.000 -0.000 -0.000 -0.000 -0.000 -0.000 -0.000 +0.000 -0.000 -0.000 -0.000 -0.000 -0.000
# oxidation-state N -0.293 -0.299 -0.310 -0.304
# magnetic-moments N -0.000 -0.000 -0.000 -0.000
# oxidation-state Ti +1.460
# magnetic-moments Ti +0.000
# oxidation-state O -0.369 -0.403 -0.671
# magnetic-moments O -0.000 -0.000 -0.000
# oxidation-state H +0.395 +0.485 +0.485
# magnetic-moments H +0.000 +0.000 +0.000


Dumping 'jdft.n_up' ... done
Dumping 'jdft.n_dn' ... done
Dumping 'jdft.tau_up' ... done
Dumping 'jdft.tau_dn' ... done
Dumping 'jdft.eigenvals' ... done
Dumping 'jdft.eigStats' ... 
	eMin: -2.298130 at state 7 ( [ -0.333333 +0.333333 +0.000000 ] spin 1 )
	HOMO: -0.168496 at state 17 ( [ -0.333333 -0.333333 +0.000000 ] spin -1 )
	mu  : -0.160200
	LUMO: -0.159959 at state 13 ( [ +0.333333 +0.333333 +0.000000 ] spin -1 )
	eMax: +0.016709 at state 17 ( [ -0.333333 -0.333333 +0.000000 ] spin -1 )
	HOMO-LUMO gap: +0.008536
	Optical gap  : +0.008537 at state 17 ( [ -0.333333 -0.333333 +0.000000 ] spin -1 )
Dumping 'jdft.kPts' ... done
Dumping 'jdft.dosUp' ... done.
Dumping 'jdft.dosDn' ... done.
End date and time: Fri Jul 22 12:40:37 2022  (Duration: 0-20:55:50.00)
Done!

PROFILER:             augmentDensityGrid     0.677522 +/-     0.767012 s, 4055 calls,   2747.353700 s total
PROFILER:         augmentDensityGridGrad     0.534499 +/-     0.671699 s, 2385 calls,   1274.779467 s total
PROFILER:        augmentDensitySpherical     0.000515 +/-     0.000719 s, 4055 calls,      2.089265 s total
PROFILER:    augmentDensitySphericalGrad     0.000693 +/-     0.002053 s, 2885 calls,      1.998203 s total
PROFILER:                 augmentOverlap     1.717826 +/-     2.449015 s, 9060 calls,  15563.500287 s total
PROFILER:                     diagouterI    17.237349 +/-     0.721442 s,  814 calls,  14031.201748 s total
PROFILER:              EdensityAndVscloc    10.676456 +/-     3.037989 s,  811 calls,   8658.606015 s total
PROFILER:                     EnlAndGrad     0.001742 +/-     0.002901 s, 4745 calls,      8.266120 s total
PROFILER:            ExCorrCommunication     0.098396 +/-     0.134815 s, 5286 calls,    520.122408 s total
PROFILER:               ExCorrFunctional     0.026947 +/-     0.005951 s,  926 calls,     24.952475 s total
PROFILER:                    ExCorrTotal     0.847235 +/-     0.277307 s,  926 calls,    784.539726 s total
PROFILER:                   Idag_DiagV_I    33.522676 +/-     6.281856 s,  539 calls,  18068.722303 s total
PROFILER:                    initWeights     1.933098 +/-     0.000000 s,    1 calls,      1.933098 s total
PROFILER:                    inv(matrix)     0.003509 +/-     0.005770 s,  803 calls,      2.817500 s total
PROFILER:            matrix::diagonalize     0.009041 +/-     0.006376 s, 1345 calls,     12.159946 s total
PROFILER:                    matrix::set     0.000002 +/-     0.000006 s, 86034 calls,      0.203939 s total
PROFILER:            orthoMatrix(matrix)     0.002509 +/-     0.001336 s,  873 calls,      2.190735 s total
PROFILER:     RadialFunctionR::transform     0.014299 +/-     0.144295 s,  146 calls,      2.087690 s total
PROFILER:                    reduceKmesh     0.000000 +/-     0.000000 s,    1 calls,      0.000000 s total
PROFILER:   VanDerWaalsD3::energyAndGrad     0.038334 +/-     0.003045 s,   77 calls,      2.951707 s total
PROFILER:               WavefunctionDrag    35.568881 +/-     3.038745 s,   38 calls,   1351.617497 s total
PROFILER:                            Y*M     0.780873 +/-     0.930910 s, 15363 calls,  11996.557683 s total
PROFILER:                          Y1^Y2     0.849354 +/-     0.988057 s, 11648 calls,   9893.272933 s total

MEMUSAGE:                   ColumnBundle     1.365987 GB
MEMUSAGE:        complexScalarFieldTilde     0.074158 GB
MEMUSAGE:                    IndexArrays     0.023178 GB
MEMUSAGE:                         matrix     0.020854 GB
MEMUSAGE:                           misc     0.051230 GB
MEMUSAGE:                    ScalarField     0.358429 GB
MEMUSAGE:               ScalarFieldTilde     0.262436 GB
MEMUSAGE:                          Total     1.646313 GB
