
*************** JDFTx 1.7.0 (git hash 5f12716a) ***************

Start date and time: Wed Nov  9 13:08:49 2022
Executable /home/nisi6161/jdftx_alpine/build/jdftx with command-line: -i in
Running on hosts (process indices):  c3cpu-a7-u1-1.rc.int.colorado.edu (0-17)
Divided in process groups (process indices):  0 (0)  1 (1)  2 (2)  3 (3)  4 (4)  5 (5)  6 (6)  7 (7)  8 (8)  9 (9)  10 (10)  11 (11)  12 (12)  13 (13)  14 (14)  15 (15)  16 (16)  17 (17)
Resource initialization completed at t[s]:      0.00
Run totals: 18 processes, 64 threads, 0 GPUs


Input parsed successfully to the following command list (including defaults):

basis kpoint-dependent
converge-empty-states yes
coords-type Cartesian
core-overlap-check none
coulomb-interaction Periodic
davidson-band-ratio 1.1
density-of-states Etol 1.000000e-06 Esigma 1.000000e-03 \
		Complete \
	Total \
	OrthoOrbital C 1   s \
	OrthoOrbital C 1   p \
	OrthoOrbital C 1   px \
	OrthoOrbital C 1   py \
	OrthoOrbital C 1   pz \
	OrthoOrbital C 2   s \
	OrthoOrbital C 2   p \
	OrthoOrbital C 2   px \
	OrthoOrbital C 2   py \
	OrthoOrbital C 2   pz \
	OrthoOrbital C 3   s \
	OrthoOrbital C 3   p \
	OrthoOrbital C 3   px \
	OrthoOrbital C 3   py \
	OrthoOrbital C 3   pz \
	OrthoOrbital C 4   s \
	OrthoOrbital C 4   p \
	OrthoOrbital C 4   px \
	OrthoOrbital C 4   py \
	OrthoOrbital C 4   pz \
	OrthoOrbital C 5   s \
	OrthoOrbital C 5   p \
	OrthoOrbital C 5   px \
	OrthoOrbital C 5   py \
	OrthoOrbital C 5   pz \
	OrthoOrbital C 6   s \
	OrthoOrbital C 6   p \
	OrthoOrbital C 6   px \
	OrthoOrbital C 6   py \
	OrthoOrbital C 6   pz \
	OrthoOrbital C 7   s \
	OrthoOrbital C 7   p \
	OrthoOrbital C 7   px \
	OrthoOrbital C 7   py \
	OrthoOrbital C 7   pz \
	OrthoOrbital C 8   s \
	OrthoOrbital C 8   p \
	OrthoOrbital C 8   px \
	OrthoOrbital C 8   py \
	OrthoOrbital C 8   pz \
	OrthoOrbital C 9   s \
	OrthoOrbital C 9   p \
	OrthoOrbital C 9   px \
	OrthoOrbital C 9   py \
	OrthoOrbital C 9   pz \
	OrthoOrbital C 10   s \
	OrthoOrbital C 10   p \
	OrthoOrbital C 10   px \
	OrthoOrbital C 10   py \
	OrthoOrbital C 10   pz \
	OrthoOrbital C 11   s \
	OrthoOrbital C 11   p \
	OrthoOrbital C 11   px \
	OrthoOrbital C 11   py \
	OrthoOrbital C 11   pz \
	OrthoOrbital C 12   s \
	OrthoOrbital C 12   p \
	OrthoOrbital C 12   px \
	OrthoOrbital C 12   py \
	OrthoOrbital C 12   pz \
	OrthoOrbital C 13   s \
	OrthoOrbital C 13   p \
	OrthoOrbital C 13   px \
	OrthoOrbital C 13   py \
	OrthoOrbital C 13   pz \
	OrthoOrbital C 14   s \
	OrthoOrbital C 14   p \
	OrthoOrbital C 14   px \
	OrthoOrbital C 14   py \
	OrthoOrbital C 14   pz \
	OrthoOrbital C 15   s \
	OrthoOrbital C 15   p \
	OrthoOrbital C 15   px \
	OrthoOrbital C 15   py \
	OrthoOrbital C 15   pz \
	OrthoOrbital C 16   s \
	OrthoOrbital C 16   p \
	OrthoOrbital C 16   px \
	OrthoOrbital C 16   py \
	OrthoOrbital C 16   pz \
	OrthoOrbital C 17   s \
	OrthoOrbital C 17   p \
	OrthoOrbital C 17   px \
	OrthoOrbital C 17   py \
	OrthoOrbital C 17   pz \
	OrthoOrbital C 18   s \
	OrthoOrbital C 18   p \
	OrthoOrbital C 18   px \
	OrthoOrbital C 18   py \
	OrthoOrbital C 18   pz \
	OrthoOrbital C 19   s \
	OrthoOrbital C 19   p \
	OrthoOrbital C 19   px \
	OrthoOrbital C 19   py \
	OrthoOrbital C 19   pz \
	OrthoOrbital C 20   s \
	OrthoOrbital C 20   p \
	OrthoOrbital C 20   px \
	OrthoOrbital C 20   py \
	OrthoOrbital C 20   pz \
	OrthoOrbital C 21   s \
	OrthoOrbital C 21   p \
	OrthoOrbital C 21   px \
	OrthoOrbital C 21   py \
	OrthoOrbital C 21   pz \
	OrthoOrbital C 22   s \
	OrthoOrbital C 22   p \
	OrthoOrbital C 22   px \
	OrthoOrbital C 22   py \
	OrthoOrbital C 22   pz \
	OrthoOrbital C 23   s \
	OrthoOrbital C 23   p \
	OrthoOrbital C 23   px \
	OrthoOrbital C 23   py \
	OrthoOrbital C 23   pz \
	OrthoOrbital C 24   s \
	OrthoOrbital C 24   p \
	OrthoOrbital C 24   px \
	OrthoOrbital C 24   py \
	OrthoOrbital C 24   pz \
	OrthoOrbital C 25   s \
	OrthoOrbital C 25   p \
	OrthoOrbital C 25   px \
	OrthoOrbital C 25   py \
	OrthoOrbital C 25   pz \
	OrthoOrbital C 26   s \
	OrthoOrbital C 26   p \
	OrthoOrbital C 26   px \
	OrthoOrbital C 26   py \
	OrthoOrbital C 26   pz \
	OrthoOrbital C 27   s \
	OrthoOrbital C 27   p \
	OrthoOrbital C 27   px \
	OrthoOrbital C 27   py \
	OrthoOrbital C 27   pz \
	OrthoOrbital C 28   s \
	OrthoOrbital C 28   p \
	OrthoOrbital C 28   px \
	OrthoOrbital C 28   py \
	OrthoOrbital C 28   pz \
	OrthoOrbital C 29   s \
	OrthoOrbital C 29   p \
	OrthoOrbital C 29   px \
	OrthoOrbital C 29   py \
	OrthoOrbital C 29   pz \
	OrthoOrbital C 30   s \
	OrthoOrbital C 30   p \
	OrthoOrbital C 30   px \
	OrthoOrbital C 30   py \
	OrthoOrbital C 30   pz \
	OrthoOrbital C 31   s \
	OrthoOrbital C 31   p \
	OrthoOrbital C 31   px \
	OrthoOrbital C 31   py \
	OrthoOrbital C 31   pz \
	OrthoOrbital C 32   s \
	OrthoOrbital C 32   p \
	OrthoOrbital C 32   px \
	OrthoOrbital C 32   py \
	OrthoOrbital C 32   pz \
	OrthoOrbital C 33   s \
	OrthoOrbital C 33   p \
	OrthoOrbital C 33   px \
	OrthoOrbital C 33   py \
	OrthoOrbital C 33   pz \
	OrthoOrbital C 34   s \
	OrthoOrbital C 34   p \
	OrthoOrbital C 34   px \
	OrthoOrbital C 34   py \
	OrthoOrbital C 34   pz \
	OrthoOrbital C 35   s \
	OrthoOrbital C 35   p \
	OrthoOrbital C 35   px \
	OrthoOrbital C 35   py \
	OrthoOrbital C 35   pz \
	OrthoOrbital C 36   s \
	OrthoOrbital C 36   p \
	OrthoOrbital C 36   px \
	OrthoOrbital C 36   py \
	OrthoOrbital C 36   pz \
	OrthoOrbital C 37   s \
	OrthoOrbital C 37   p \
	OrthoOrbital C 37   px \
	OrthoOrbital C 37   py \
	OrthoOrbital C 37   pz \
	OrthoOrbital C 38   s \
	OrthoOrbital C 38   p \
	OrthoOrbital C 38   px \
	OrthoOrbital C 38   py \
	OrthoOrbital C 38   pz \
	OrthoOrbital C 39   s \
	OrthoOrbital C 39   p \
	OrthoOrbital C 39   px \
	OrthoOrbital C 39   py \
	OrthoOrbital C 39   pz \
	OrthoOrbital C 40   s \
	OrthoOrbital C 40   p \
	OrthoOrbital C 40   px \
	OrthoOrbital C 40   py \
	OrthoOrbital C 40   pz \
	OrthoOrbital C 41   s \
	OrthoOrbital C 41   p \
	OrthoOrbital C 41   px \
	OrthoOrbital C 41   py \
	OrthoOrbital C 41   pz \
	OrthoOrbital C 42   s \
	OrthoOrbital C 42   p \
	OrthoOrbital C 42   px \
	OrthoOrbital C 42   py \
	OrthoOrbital C 42   pz \
	OrthoOrbital C 43   s \
	OrthoOrbital C 43   p \
	OrthoOrbital C 43   px \
	OrthoOrbital C 43   py \
	OrthoOrbital C 43   pz \
	OrthoOrbital C 44   s \
	OrthoOrbital C 44   p \
	OrthoOrbital C 44   px \
	OrthoOrbital C 44   py \
	OrthoOrbital C 44   pz \
	OrthoOrbital C 45   s \
	OrthoOrbital C 45   p \
	OrthoOrbital C 45   px \
	OrthoOrbital C 45   py \
	OrthoOrbital C 45   pz \
	OrthoOrbital N 1   s \
	OrthoOrbital N 1   p \
	OrthoOrbital N 1   px \
	OrthoOrbital N 1   py \
	OrthoOrbital N 1   pz \
	OrthoOrbital N 2   s \
	OrthoOrbital N 2   p \
	OrthoOrbital N 2   px \
	OrthoOrbital N 2   py \
	OrthoOrbital N 2   pz \
	OrthoOrbital N 3   s \
	OrthoOrbital N 3   p \
	OrthoOrbital N 3   px \
	OrthoOrbital N 3   py \
	OrthoOrbital N 3   pz \
	OrthoOrbital N 4   s \
	OrthoOrbital N 4   p \
	OrthoOrbital N 4   px \
	OrthoOrbital N 4   py \
	OrthoOrbital N 4   pz \
	OrthoOrbital Ti 1   s \
	OrthoOrbital Ti 1   p \
	OrthoOrbital Ti 1   px \
	OrthoOrbital Ti 1   py \
	OrthoOrbital Ti 1   pz \
	OrthoOrbital Ti 1   d \
	OrthoOrbital Ti 1   dxy \
	OrthoOrbital Ti 1   dyz \
	OrthoOrbital Ti 1   dz2 \
	OrthoOrbital Ti 1   dxz \
	OrthoOrbital Ti 1   dx2-y2 \
	OrthoOrbital O 1   s \
	OrthoOrbital O 1   p \
	OrthoOrbital O 1   px \
	OrthoOrbital O 1   py \
	OrthoOrbital O 1   pz \
	OrthoOrbital O 2   s \
	OrthoOrbital O 2   p \
	OrthoOrbital O 2   px \
	OrthoOrbital O 2   py \
	OrthoOrbital O 2   pz \
	OrthoOrbital O 3   s \
	OrthoOrbital O 3   p \
	OrthoOrbital O 3   px \
	OrthoOrbital O 3   py \
	OrthoOrbital O 3   pz \
	OrthoOrbital H 1   s \
	OrthoOrbital H 2   s
dump End ElecDensity KEdensity BandEigs EigStats RhoAtom DOS Kpoints
dump Ionic State IonicPositions Lattice EigStats Ecomponents
dump 
dump 
dump 
dump 
dump 
dump 
dump 
dump 
dump-name jdft.$VAR
elec-cutoff 20
elec-eigen-algo Davidson
elec-ex-corr gga-PBE
elec-initial-magnetization 0.000000 no
elec-n-bands 140
elec-smearing Fermi 0.001
electronic-minimize  \
	dirUpdateScheme      FletcherReeves \
	linminMethod         DirUpdateRecommended \
	nIterations          100 \
	history              15 \
	knormThreshold       0 \
	energyDiffThreshold  1e-07 \
	nEnergyDiff          2 \
	alphaTstart          1 \
	alphaTmin            1e-10 \
	updateTestStepSize   yes \
	alphaTreduceFactor   0.1 \
	alphaTincreaseFactor 3 \
	nAlphaAdjustMax      3 \
	wolfeEnergy          0.0001 \
	wolfeGradient        0.9 \
	fdTest               no
exchange-regularization WignerSeitzTruncated
fluid LinearPCM 298.000000 1.013250
fluid-anion F- 0.5 MeanFieldLJ \
	epsBulk 1 \
	pMol 0 \
	epsInf 1 \
	Pvap 0 \
	sigmaBulk 0 \
	Rvdw 2.24877 \
	Res 0 \
	tauNuc 343133
fluid-cation Na+ 0.5 MeanFieldLJ \
	epsBulk 1 \
	pMol 0 \
	epsInf 1 \
	Pvap 0 \
	sigmaBulk 0 \
	Rvdw 2.19208 \
	Res 0 \
	tauNuc 343133
fluid-ex-corr lda-TF lda-PZ
fluid-gummel-loop 10 1.000000e-05
fluid-minimize  \
	dirUpdateScheme      PolakRibiere \
	linminMethod         DirUpdateRecommended \
	nIterations          400 \
	history              15 \
	knormThreshold       1e-11 \
	energyDiffThreshold  0 \
	nEnergyDiff          2 \
	alphaTstart          1 \
	alphaTmin            1e-10 \
	updateTestStepSize   yes \
	alphaTreduceFactor   0.1 \
	alphaTincreaseFactor 3 \
	nAlphaAdjustMax      6 \
	wolfeEnergy          0.0001 \
	wolfeGradient        0.9 \
	fdTest               no
fluid-solvent H2O 55.338 ScalarEOS \
	epsBulk 78.4 \
	pMol 0.92466 \
	epsInf 1.77 \
	Pvap 1.06736e-10 \
	sigmaBulk 4.62e-05 \
	Rvdw 2.61727 \
	Res 1.42 \
	tauNuc 343133 \
	poleEl 15 7 1
forces-output-coords Positions
ion C  -0.007694000000000   0.084965000000000   0.066312000000000 0
ion C  21.041498000000001   4.043036000000001   0.037330000000000 0
ion C  18.693363000000002   8.049201000000000  43.188703000000004 0
ion C  -7.053136000000000  12.050110000000000  43.177197000000007 0
ion C  -9.378240000000002  16.064951000000004   0.014318000000000 0
ion C   4.677811000000000   0.197853000000000   0.089497000000000 0
ion C   2.286889999999999   4.207875000000000   0.173717000000000 0
ion C  -0.127522000000000   8.029085000000002   0.111645000000000 0
ion C  -2.446132000000000  12.041856000000001  43.246580000000009 0
ion C  -4.735413000000000  16.071888000000005   0.003590000000000 0
ion C   9.370062000000001   0.086120000000000   0.027814000000000 0
ion C   7.084833000000001   4.194581000000001   0.122978000000000 0
ion C  -0.043653000000001  15.973820000000003   0.058612000000000 0
ion C   2.340844000000001  19.928175000000003   0.036335000000000 0
ion C  11.756501999999998   4.028845000000000  43.241260000000004 0
ion C   9.475396999999999   8.016128000000002   0.049182000000000 0
ion C   4.664420000000002  15.828341999999999   0.166104000000000 0
ion C   6.991429999999999  19.933123000000002   0.056493000000000 0
ion C  16.399004000000001   4.014972000000000  43.222400000000007 0
ion C  14.092981000000002   8.041061000000001  43.170449000000005 0
ion C  11.773687000000002  12.043357000000002  43.248873000000010 0
ion C   9.368657000000001  15.977456000000002   0.073449000000000 0
ion C  -0.020774000000000   2.772934000000000   0.086080000000000 0
ion C  -2.428085000000000   6.701784000000001   0.011463000000000 0
ion C  -4.751268000000001  10.702321000000001  43.181479000000010 0
ion C  -7.054819000000000  14.728950000000003  43.230056000000005 0
ion C  -9.379649000000002  18.753887000000002   0.062851000000000 0
ion C   4.680046000000000   2.916099000000000   0.157453000000000 0
ion C  -0.137904000000002  10.729406000000006   0.103512000000000 0
ion C  -2.413019999999999  14.715515999999999   0.013453000000000 0
ion C  -4.728806000000000  18.758196000000002   0.045679000000000 0
ion C   9.388813000000001   2.767250000000001   0.027035000000000 0
ion C   2.260145000000001  14.539706000000004   0.167099000000000 0
ion C  -0.023368000000001  18.656089000000005   0.031880000000000 0
ion C  14.079257999999999   2.672653000000000  43.242730000000009 0
ion C  11.786168000000000   6.703101000000002  43.219718000000007 0
ion C   9.470965000000000  10.718847000000002   0.073233000000000 0
ion C   7.060898000000000  14.545227000000004   0.157583000000000 0
ion C   4.666831000000002  18.546609000000000   0.085172000000000 0
ion C  18.723233000000000   2.679870000000001   0.012371000000000 0
ion C  16.396232000000001   6.693313000000001  43.174818000000009 0
ion C  14.086194000000003  10.712555000000004  43.178798000000008 0
ion C  11.739804000000003  14.720616000000000   0.026127000000000 0
ion C   9.355133000000002  18.664027999999998   0.062116000000000 0
ion C   4.940548000000000   8.321804999999999   5.404833000000001 1
ion N   2.128050000000000  11.956926000000001   0.265204000000000 0
ion N   7.190352000000001  11.947226000000002   0.223376000000000 0
ion N   2.160338000000000   6.811226000000000   0.265767000000000 0
ion N   7.207226000000002   6.776436000000001   0.194524000000000 0
ion Ti   4.719181000000002   9.358340999999999   1.684790000000000 0
ion O   4.086258000000000  10.658550999999999   5.147891000000001 1
ion O   5.296387000000000   7.185278000000001   7.423475000000002 1
ion O   7.227402000000001   2.447594000000000   6.731418000000001 1
ion H   6.445125000000001   4.168014000000001   6.890125000000002 1
ion H   5.797345000000000   1.317317000000000   6.398690000000001 1
ion-species /projects/musgravc/apps/jdftx-1.6.0/build/pseudopotentials/GBRV_v1.5/$ID_pbe_v1.uspp
ion-species /projects/musgravc/apps/jdftx-1.6.0/build/pseudopotentials/GBRV_v1.5/$ID_pbe_v1.2.uspp
ion-species /projects/musgravc/apps/jdftx-1.6.0/build/pseudopotentials/GBRV_v1.5/$ID_pbe_v1.4.uspp
ion-species /projects/musgravc/apps/jdftx-1.6.0/build/pseudopotentials/GBRV_v1.5/$ID_pbe_v1.5.uspp
ion-width Ecut
ionic-minimize  \
	dirUpdateScheme      L-BFGS \
	linminMethod         DirUpdateRecommended \
	nIterations          100 \
	history              15 \
	knormThreshold       0.0001 \
	energyDiffThreshold  1e-06 \
	nEnergyDiff          2 \
	alphaTstart          1 \
	alphaTmin            1e-10 \
	updateTestStepSize   yes \
	alphaTreduceFactor   0.1 \
	alphaTincreaseFactor 1 \
	nAlphaAdjustMax      1 \
	wolfeEnergy          0.0001 \
	wolfeGradient        0.9 \
	fdTest               no
kpoint   0.000000000000   0.000000000000   0.000000000000  1.00000000000000
kpoint-folding 3 3 1 
latt-move-scale 0 0 0
latt-scale 1 1 1 
lattice  \
	  23.436261999999999  -11.733459000000000    0.000000000000000  \
	   0.017994000000000   19.941849000000001    0.000000000000000  \
	   0.000000000000000    0.000000000000000   43.256312999999999 
lattice-minimize  \
	dirUpdateScheme      L-BFGS \
	linminMethod         DirUpdateRecommended \
	nIterations          0 \
	history              15 \
	knormThreshold       0 \
	energyDiffThreshold  1e-06 \
	nEnergyDiff          2 \
	alphaTstart          1 \
	alphaTmin            1e-10 \
	updateTestStepSize   yes \
	alphaTreduceFactor   0.1 \
	alphaTincreaseFactor 3 \
	nAlphaAdjustMax      3 \
	wolfeEnergy          0.0001 \
	wolfeGradient        0.9 \
	fdTest               no
lcao-params 30 1e-06 0.001
pcm-variant CANDLE
spintype z-spin
subspace-rotation-factor 1 yes
symmetries none
symmetry-threshold 0.0001
van-der-waals D3
vibrations \
	dr 0.01\
	centralDiff no\
	useConstraints yes\
	translationSym yes\
	rotationSym no\
	omegaMin 0.0002\
	T 298\
	omegaResolution 0.0001


Applied RMS atom displacement 0 bohrs to make symmetries exact.
Applied RMS atom displacement 0 bohrs to make symmetries exact.

---------- Initializing the Grid ----------
R = 
[      23.4363     -11.7335            0  ]
[     0.017994      19.9418            0  ]
[            0            0      43.2563  ]
unit cell volume = 20225.5
G =
[   0.267976   0.157673         -0  ]
[ -0.000241801   0.314933          0  ]
[          0         -0   0.145255  ]
Minimum fftbox size, Smin = [  96  96  176  ]
Chosen fftbox size, S = [  96  96  180  ]

---------- Exchange Correlation functional ----------
Initalized PBE GGA exchange.
Initalized PBE GGA correlation.

---------- Setting up pseudopotentials ----------
Width of ionic core gaussian charges (only for fluid interactions / plotting) set to 0.397384

Reading pseudopotential file '/projects/musgravc/apps/jdftx-1.6.0/build/pseudopotentials/GBRV_v1.5/c_pbe_v1.2.uspp':
  Title: C.  Created by USPP 7.3.6 on 3-2-2014
  Reference state energy: -5.406344.  4 valence electrons in orbitals:
    |200>  occupation: 2  eigenvalue: -0.504890
    |210>  occupation: 2  eigenvalue: -0.194356
  lMax: 1  lLocal: 2  QijEcut: 5
  4 projectors sampled on a log grid with 503 points:
    l: 0  eig: -0.504890  rCut: 1.3
    l: 0  eig: 0.000000  rCut: 1.3
    l: 1  eig: -0.194357  rCut: 1.3
    l: 1  eig: 0.000000  rCut: 1.3
  Partial core density with radius 1.1
  Transforming core density to a uniform radial grid of dG=0.02 with 1464 points.
  Transforming local potential to a uniform radial grid of dG=0.02 with 1464 points.
  Transforming nonlocal projectors to a uniform radial grid of dG=0.02 with 432 points.
  Transforming density augmentations to a uniform radial grid of dG=0.02 with 1464 points.
  Transforming atomic orbitals to a uniform radial grid of dG=0.02 with 432 points.
  Core radius for overlap checks: 1.30 bohrs.

Reading pseudopotential file '/projects/musgravc/apps/jdftx-1.6.0/build/pseudopotentials/GBRV_v1.5/n_pbe_v1.2.uspp':
  Title: N.  Created by USPP 7.3.6 on 3-2-2014
  Reference state energy: -9.763716.  5 valence electrons in orbitals:
    |200>  occupation: 2  eigenvalue: -0.681964
    |210>  occupation: 3  eigenvalue: -0.260726
  lMax: 1  lLocal: 2  QijEcut: 6
  4 projectors sampled on a log grid with 491 points:
    l: 0  eig: -0.681964  rCut: 1.15
    l: 0  eig: 0.000000  rCut: 1.15
    l: 1  eig: -0.260729  rCut: 1.2
    l: 1  eig: 0.500000  rCut: 1.2
  Partial core density with radius 0.8
  Transforming core density to a uniform radial grid of dG=0.02 with 1464 points.
  Transforming local potential to a uniform radial grid of dG=0.02 with 1464 points.
  Transforming nonlocal projectors to a uniform radial grid of dG=0.02 with 432 points.
  Transforming density augmentations to a uniform radial grid of dG=0.02 with 1464 points.
  Transforming atomic orbitals to a uniform radial grid of dG=0.02 with 432 points.
  Core radius for overlap checks: 1.20 bohrs.

Reading pseudopotential file '/projects/musgravc/apps/jdftx-1.6.0/build/pseudopotentials/GBRV_v1.5/ti_pbe_v1.4.uspp':
  Title: Ti.  Created by USPP 7.3.6 on 31-3-15
  Reference state energy: -59.020943.  12 valence electrons in orbitals:
    |300>  occupation: 2  eigenvalue: -2.777623
    |310>  occupation: 6  eigenvalue: -1.894596
    |400>  occupation: 2  eigenvalue: -0.438610
    |320>  occupation: 1  eigenvalue: -0.583119
  lMax: 2  lLocal: 3  QijEcut: 6
  6 projectors sampled on a log grid with 597 points:
    l: 0  eig: -2.777624  rCut: 1.8
    l: 0  eig: -0.438611  rCut: 1.8
    l: 1  eig: -1.894596  rCut: 1.8
    l: 1  eig: 0.500000  rCut: 1.8
    l: 2  eig: -0.583118  rCut: 1.8
    l: 2  eig: 0.150000  rCut: 1.8
  Partial core density with radius 0.8
  Transforming core density to a uniform radial grid of dG=0.02 with 1464 points.
  Transforming local potential to a uniform radial grid of dG=0.02 with 1464 points.
  Transforming nonlocal projectors to a uniform radial grid of dG=0.02 with 432 points.
  Transforming density augmentations to a uniform radial grid of dG=0.02 with 1464 points.
  Transforming atomic orbitals to a uniform radial grid of dG=0.02 with 432 points.
  Core radius for overlap checks: 1.80 bohrs.

Reading pseudopotential file '/projects/musgravc/apps/jdftx-1.6.0/build/pseudopotentials/GBRV_v1.5/o_pbe_v1.2.uspp':
  Title: O.  Created by USPP 7.3.6 on 3-2-2014
  Reference state energy: -15.894388.  6 valence electrons in orbitals:
    |200>  occupation: 2  eigenvalue: -0.878823
    |210>  occupation: 4  eigenvalue: -0.332131
  lMax: 2  lLocal: 2  QijEcut: 6
  5 projectors sampled on a log grid with 511 points:
    l: 0  eig: -0.878823  rCut: 1.25
    l: 0  eig: 0.000000  rCut: 1.25
    l: 1  eig: -0.332132  rCut: 1.25
    l: 1  eig: 0.000000  rCut: 1.25
    l: 2  eig: 1.000000  rCut: 1.25
  Partial core density with radius 0.7
  Transforming core density to a uniform radial grid of dG=0.02 with 1464 points.
  Transforming local potential to a uniform radial grid of dG=0.02 with 1464 points.
  Transforming nonlocal projectors to a uniform radial grid of dG=0.02 with 432 points.
  Transforming density augmentations to a uniform radial grid of dG=0.02 with 1464 points.
  Transforming atomic orbitals to a uniform radial grid of dG=0.02 with 432 points.
  Core radius for overlap checks: 1.25 bohrs.

Reading pseudopotential file '/projects/musgravc/apps/jdftx-1.6.0/build/pseudopotentials/GBRV_v1.5/h_pbe_v1.4.uspp':
  Title: H.  Created by USPP 7.3.6 on 2-4-15
  Reference state energy: -0.458849.  1 valence electrons in orbitals:
    |100>  occupation: 1  eigenvalue: -0.238595
  lMax: 0  lLocal: 1  QijEcut: 6
  2 projectors sampled on a log grid with 395 points:
    l: 0  eig: -0.238595  rCut: 1.2
    l: 0  eig: 1.000000  rCut: 1.2
  Transforming local potential to a uniform radial grid of dG=0.02 with 1464 points.
  Transforming nonlocal projectors to a uniform radial grid of dG=0.02 with 432 points.
  Transforming density augmentations to a uniform radial grid of dG=0.02 with 1464 points.
  Transforming atomic orbitals to a uniform radial grid of dG=0.02 with 432 points.
  Core radius for overlap checks: 1.20 bohrs.

Initialized 5 species with 55 total atoms.

Folded 1 k-points by 3x3x1 to 9 k-points.

---------- Setting up k-points, bands, fillings ----------
No reducable k-points. 
Computing the number of bands and number of electrons
Calculating initial fillings.
nElectrons: 232.000000   nBands: 140   nStates: 18

----- Setting up reduced wavefunction bases (one per k-point) -----
average nbasis = 86412.556 , ideal nbasis = 86404.907

----- Initializing Supercell corresponding to k-point mesh -----
Lattice vector linear combinations in supercell:
[   3   0   0  ]
[   0   3   0  ]
[   0   0   1  ]
Supercell lattice vectors:
[  70.3088  -35.2004  0  ]
[  0.053982  59.8255  0  ]
[  0  0  43.2563  ]

Initializing DFT-D3 calculator:
	Parameters set for gga-PBE functional
	s6:  1.000  s_r6:  1.217
	s8:  0.722  s_r8:  1.000
	Per-atom parameters loaded for:
	 C:  sqrtQ[a0]:  3.105  Rcov[a0]:  1.417  CN: [ 0.00 0.99 2.00 3.00 3.98 ]
	 N:  sqrtQ[a0]:  2.712  Rcov[a0]:  1.342  CN: [ 0.00 0.99 2.01 2.99 ]
	Ti:  sqrtQ[a0]:  6.288  Rcov[a0]:  2.305  CN: [ 0.00 1.83 3.87 ]
	 O:  sqrtQ[a0]:  2.594  Rcov[a0]:  1.191  CN: [ 0.00 0.99 1.99 ]
	 H:  sqrtQ[a0]:  2.007  Rcov[a0]:  0.605  CN: [ 0.91 0.00 ]

Initializing DFT-D2 calculator for fluid / solvation:
	 C:  C6:   30.35 Eh-a0^6  R0: 2.744 a0
	 N:  C6:   21.33 Eh-a0^6  R0: 2.640 a0
	Ti:  C6:  187.33 Eh-a0^6  R0: 2.952 a0
	 O:  C6:   12.14 Eh-a0^6  R0: 2.536 a0
	 H:  C6:    2.43 Eh-a0^6  R0: 1.892 a0

---------- Setting up ewald sum ----------
Optimum gaussian width for ewald sums = 5.573775 bohr.
Real space sum over 567 unit cells with max indices [  4  4  3  ]
Reciprocal space sum over 7803 terms with max indices [  8  8  13  ]

Computing DFT-D3 correction:
# coordination-number C 3.301 3.322 3.335 3.333 3.313 3.290 3.326 3.579 3.331 3.314 3.304 3.333 3.306 3.301 3.326 3.617 3.265 3.300 3.319 3.335 3.328 3.303 3.302 3.327 3.336 3.319 3.300 3.268 3.570 3.326 3.302 3.307 3.325 3.303 3.314 3.330 3.618 3.327 3.289 3.313 3.333 3.335 3.322 3.301 3.000
# coordination-number N 3.178 3.178 3.176 3.183
# coordination-number Ti 7.480
# coordination-number O 2.000 1.051 1.983
# coordination-number H 1.002 0.993
# diagonal-C6 C 24.28 24.06 23.92 23.94 24.16 24.37 24.02 20.54 23.96 24.14 24.25 23.94 24.23 24.27 24.02 20.08 24.59 24.28 24.09 23.92 24.00 24.25 24.26 24.00 23.91 24.09 24.28 24.57 20.65 24.02 24.26 24.21 24.03 24.26 24.15 23.97 20.07 24.01 24.38 24.16 23.95 23.92 24.06 24.27 25.67
# diagonal-C6 N 15.60 15.60 15.60 15.60
# diagonal-C6 Ti 321.59
# diagonal-C6 O 10.41 12.77 10.41
# diagonal-C6 H 3.09 3.09
EvdW_6 =   -0.044040
EvdW_8 =   -0.033561

---------- Allocating electronic variables ----------
Initializing wave functions:  linear combination of atomic orbitals
C pseudo-atom occupations:   s ( 2 )  p ( 2 )
N pseudo-atom occupations:   s ( 2 )  p ( 3 )
Ti pseudo-atom occupations:   s ( 2 0 )  p ( 6 )  d ( 4 )
O pseudo-atom occupations:   s ( 2 )  p ( 4 )
H pseudo-atom occupations:   s ( 1 )
	FillingsUpdate:  mu: -0.238886695  nElectrons: 232.000000  magneticMoment: [ Abs: 0.00445  Tot: +0.00000 ]
LCAOMinimize: Iter:   0  F: -398.7995639490711710  |grad|_K:  4.204e-03  alpha:  1.000e+00
	FillingsUpdate:  mu: -0.233392452  nElectrons: 232.000000  magneticMoment: [ Abs: 0.00437  Tot: -0.00000 ]
LCAOMinimize: Iter:   1  F: -400.2536169529424797  |grad|_K:  1.525e-03  alpha:  1.203e-01  linmin: -1.442e-01  cgtest:  1.749e+00  t[s]:    373.25
LCAOMinimize: Encountered beta<0, resetting CG.
LCAOMinimize: 	Wrong curvature in test step, increasing alphaT to 3.608529e-01.
	FillingsUpdate:  mu: -0.231104095  nElectrons: 232.000000  magneticMoment: [ Abs: 0.00455  Tot: -0.00032 ]
LCAOMinimize: Iter:   2  F: -400.5475881512826959  |grad|_K:  1.431e-03  alpha: -3.075e-01  linmin: -7.259e-02  cgtest:  8.191e-01  t[s]:    516.21
	FillingsUpdate:  mu: -0.226718250  nElectrons: 232.000000  magneticMoment: [ Abs: 0.00468  Tot: -0.00044 ]
LCAOMinimize: Iter:   3  F: -400.6033282735377270  |grad|_K:  1.330e-03  alpha:  2.801e-02  linmin: -9.411e-02  cgtest:  9.452e-01  t[s]:    661.50
LCAOMinimize: Encountered beta<0, resetting CG.
LCAOMinimize: 	Wrong curvature in test step, increasing alphaT to 8.404397e-02.
	FillingsUpdate:  mu: -0.225248091  nElectrons: 232.000000  magneticMoment: [ Abs: 0.00484  Tot: -0.00061 ]
LCAOMinimize: Iter:   4  F: -400.6473608173231469  |grad|_K:  1.282e-03  alpha: -1.397e+00  linmin: -1.056e-01  cgtest:  9.482e-01  t[s]:    804.06
	FillingsUpdate:  mu: -0.237217818  nElectrons: 232.000000  magneticMoment: [ Abs: 0.00500  Tot: -0.00078 ]
LCAOMinimize: Iter:   5  F: -400.6831333896231513  |grad|_K:  1.256e-03  alpha:  2.427e-02  linmin: -1.741e-01  cgtest:  9.598e-01  t[s]:    950.48
LCAOMinimize: 	Wrong curvature in test step, increasing alphaT to 7.279552e-02.
	FillingsUpdate:  mu: -0.242611307  nElectrons: 232.000000  magneticMoment: [ Abs: 0.00517  Tot: -0.00096 ]
LCAOMinimize: Iter:   6  F: -400.7178974034209205  |grad|_K:  1.245e-03  alpha: -9.305e-01  linmin: -1.948e-01  cgtest:  9.634e-01  t[s]:   1094.14
	FillingsUpdate:  mu: -0.245170563  nElectrons: 232.000000  magneticMoment: [ Abs: 0.00537  Tot: -0.00117 ]
LCAOMinimize: Iter:   7  F: -400.7530828066489335  |grad|_K:  1.238e-03  alpha:  2.466e-02  linmin: -1.990e-01  cgtest:  9.606e-01  t[s]:   1245.17
LCAOMinimize: 	Wrong curvature in test step, increasing alphaT to 7.398909e-02.
	FillingsUpdate:  mu: -0.246868260  nElectrons: 232.000000  magneticMoment: [ Abs: 0.00560  Tot: -0.00141 ]
LCAOMinimize: Iter:   8  F: -400.7881931544480381  |grad|_K:  1.234e-03  alpha: -6.400e-01  linmin: -2.027e-01  cgtest:  9.579e-01  t[s]:   1392.83
	FillingsUpdate:  mu: -0.248370268  nElectrons: 232.000000  magneticMoment: [ Abs: 0.00587  Tot: -0.00169 ]
LCAOMinimize: Iter:   9  F: -400.8240616230516480  |grad|_K:  1.231e-03  alpha:  2.519e-02  linmin: -2.065e-01  cgtest:  9.546e-01  t[s]:   1541.64
LCAOMinimize: 	Wrong curvature in test step, increasing alphaT to 7.556838e-02.
	FillingsUpdate:  mu: -0.249730101  nElectrons: 232.000000  magneticMoment: [ Abs: 0.00618  Tot: -0.00202 ]
LCAOMinimize: Iter:  10  F: -400.8600027500898477  |grad|_K:  1.229e-03  alpha: -5.376e-01  linmin: -2.102e-01  cgtest:  9.523e-01  t[s]:   1687.67
	FillingsUpdate:  mu: -0.250968124  nElectrons: 232.000000  magneticMoment: [ Abs: 0.00654  Tot: -0.00240 ]
LCAOMinimize: Iter:  11  F: -400.8964507904998982  |grad|_K:  1.227e-03  alpha:  2.551e-02  linmin: -2.139e-01  cgtest:  9.498e-01  t[s]:   1835.35
LCAOMinimize: 	Wrong curvature in test step, increasing alphaT to 7.651917e-02.
	FillingsUpdate:  mu: -0.252074600  nElectrons: 232.000000  magneticMoment: [ Abs: 0.00696  Tot: -0.00283 ]
LCAOMinimize: Iter:  12  F: -400.9329094368275150  |grad|_K:  1.224e-03  alpha: -4.999e-01  linmin: -2.172e-01  cgtest:  9.482e-01  t[s]:   1979.74
	FillingsUpdate:  mu: -0.253063041  nElectrons: 232.000000  magneticMoment: [ Abs: 0.00743  Tot: -0.00332 ]
LCAOMinimize: Iter:  13  F: -400.9694854759278542  |grad|_K:  1.219e-03  alpha:  2.567e-02  linmin: -2.196e-01  cgtest:  9.465e-01  t[s]:   2127.66
LCAOMinimize: 	Wrong curvature in test step, increasing alphaT to 7.700027e-02.
	FillingsUpdate:  mu: -0.253938957  nElectrons: 232.000000  magneticMoment: [ Abs: 0.00797  Tot: -0.00387 ]
LCAOMinimize: Iter:  14  F: -401.0058052532222632  |grad|_K:  1.213e-03  alpha: -5.023e-01  linmin: -2.196e-01  cgtest:  9.452e-01  t[s]:   2271.26
	FillingsUpdate:  mu: -0.254688298  nElectrons: 232.000000  magneticMoment: [ Abs: 0.00855  Tot: -0.00448 ]
LCAOMinimize: Iter:  15  F: -401.0414909172215516  |grad|_K:  1.204e-03  alpha:  2.552e-02  linmin: -2.137e-01  cgtest:  9.437e-01  t[s]:   2418.04
LCAOMinimize: 	Wrong curvature in test step, increasing alphaT to 7.654779e-02.
	FillingsUpdate:  mu: -0.255149331  nElectrons: 232.000000  magneticMoment: [ Abs: 0.00919  Tot: -0.00514 ]
LCAOMinimize: Iter:  16  F: -401.0767781941456747  |grad|_K:  1.199e-03  alpha: -4.460e-01  linmin: -1.935e-01  cgtest:  9.367e-01  t[s]:   2562.20
	FillingsUpdate:  mu: -0.253093206  nElectrons: 232.000000  magneticMoment: [ Abs: 0.00977  Tot: -0.00575 ]
LCAOMinimize: Iter:  17  F: -401.1136298268299356  |grad|_K:  1.246e-03  alpha:  2.555e-02  linmin: -1.574e-01  cgtest:  8.855e-01  t[s]:   2710.46
LCAOMinimize: 	Wrong curvature in test step, increasing alphaT to 7.664737e-02.
	FillingsUpdate:  mu: -0.245952692  nElectrons: 232.000000  magneticMoment: [ Abs: 0.00926  Tot: -0.00523 ]
LCAOMinimize: Iter:  18  F: -401.1553787061679941  |grad|_K:  1.209e-03  alpha: -1.759e+00  linmin: -6.341e-02  cgtest:  7.299e-01  t[s]:   2855.00
	FillingsUpdate:  mu: -0.251544751  nElectrons: 232.000000  magneticMoment: [ Abs: 0.01059  Tot: -0.00656 ]
LCAOMinimize: Iter:  19  F: -401.2006744007603061  |grad|_K:  1.073e-03  alpha:  3.072e-02  linmin: -1.851e-01  cgtest:  9.295e-01  t[s]:   3000.92
LCAOMinimize: Encountered beta<0, resetting CG.
LCAOMinimize: 	Predicted alpha/alphaT>3.000000, increasing alphaT to 9.216128e-02.
LCAOMinimize: 	Predicted alpha/alphaT>3.000000, increasing alphaT to 2.764838e-01.
	FillingsUpdate:  mu: -0.204319377  nElectrons: 232.000000  magneticMoment: [ Abs: 0.01396  Tot: -0.01004 ]
LCAOMinimize: Iter:  20  F: -401.3642298708788871  |grad|_K:  2.462e-04  alpha:  2.260e-01  linmin:  1.140e-01  cgtest: -1.489e-01  t[s]:   3218.98
	FillingsUpdate:  mu: -0.198848135  nElectrons: 232.000000  magneticMoment: [ Abs: 0.02123  Tot: -0.01746 ]
LCAOMinimize: Iter:  21  F: -401.3687562804209392  |grad|_K:  1.739e-04  alpha:  2.153e-01  linmin:  5.049e-03  cgtest:  3.627e-01  t[s]:   3363.62
	FillingsUpdate:  mu: -0.201429797  nElectrons: 232.000000  magneticMoment: [ Abs: 0.02324  Tot: -0.01945 ]
LCAOMinimize: Iter:  22  F: -401.3693280920718394  |grad|_K:  1.921e-04  alpha:  4.002e-02  linmin: -3.827e-03  cgtest:  8.835e-02  t[s]:   3508.38
	FillingsUpdate:  mu: -0.204955047  nElectrons: 232.000000  magneticMoment: [ Abs: 0.03438  Tot: -0.03054 ]
LCAOMinimize: Iter:  23  F: -401.3704298692446741  |grad|_K:  9.707e-05  alpha:  6.409e-02  linmin: -2.634e-04  cgtest: -5.334e-01  t[s]:   3652.81
	FillingsUpdate:  mu: -0.209984543  nElectrons: 232.000000  magneticMoment: [ Abs: 0.04073  Tot: -0.03680 ]
LCAOMinimize: Iter:  24  F: -401.3705688615113445  |grad|_K:  7.072e-05  alpha:  3.228e-02  linmin: -1.213e-03  cgtest:  8.832e-02  t[s]:   3796.91
LCAOMinimize: 	Predicted alpha/alphaT>3.000000, increasing alphaT to 9.684997e-02.
	FillingsUpdate:  mu: -0.207931972  nElectrons: 232.000000  magneticMoment: [ Abs: 0.07668  Tot: -0.07224 ]
LCAOMinimize: Iter:  25  F: -401.3708850686030019  |grad|_K:  1.068e-04  alpha:  1.451e-01  linmin:  1.548e-03  cgtest: -5.132e-02  t[s]:   3977.00
	FillingsUpdate:  mu: -0.212749187  nElectrons: 232.000000  magneticMoment: [ Abs: 0.10165  Tot: -0.09668 ]
LCAOMinimize: Iter:  26  F: -401.3710237256420328  |grad|_K:  7.198e-05  alpha:  2.806e-02  linmin: -1.817e-03  cgtest:  2.495e-01  t[s]:   4120.94
LCAOMinimize: 	Predicted alpha/alphaT>3.000000, increasing alphaT to 8.416886e-02.
	FillingsUpdate:  mu: -0.205253306  nElectrons: 232.000000  magneticMoment: [ Abs: 0.18259  Tot: -0.17678 ]
LCAOMinimize: Iter:  27  F: -401.3713652871530826  |grad|_K:  6.669e-05  alpha:  1.406e-01  linmin: -3.109e-03  cgtest:  9.757e-02  t[s]:   4302.73
	FillingsUpdate:  mu: -0.206005766  nElectrons: 232.000000  magneticMoment: [ Abs: 0.22034  Tot: -0.21385 ]
LCAOMinimize: Iter:  28  F: -401.3714577612508947  |grad|_K:  7.709e-05  alpha:  3.504e-02  linmin: -1.110e-02  cgtest:  2.181e-01  t[s]:   4445.81
LCAOMinimize: 	Predicted alpha/alphaT>3.000000, increasing alphaT to 1.051053e-01.
	FillingsUpdate:  mu: -0.203074550  nElectrons: 232.000000  magneticMoment: [ Abs: 0.36338  Tot: -0.35186 ]
LCAOMinimize: Iter:  29  F: -401.3717959915510392  |grad|_K:  1.469e-04  alpha:  1.113e-01  linmin:  4.736e-03  cgtest:  1.090e+00  t[s]:   4626.88
	FillingsUpdate:  mu: -0.203111324  nElectrons: 232.000000  magneticMoment: [ Abs: 0.40522  Tot: -0.39009 ]
LCAOMinimize: Iter:  30  F: -401.3720299093357085  |grad|_K:  7.890e-05  alpha:  3.554e-02  linmin:  1.388e-02  cgtest: -4.053e-01  t[s]:   4770.17
LCAOMinimize: None of the convergence criteria satisfied after 30 iterations.
----- createFluidSolver() ----- (Fluid-side solver setup)
   Initializing fluid molecule 'H2O'
     Initializing site 'O'
       Electron density: proportional to exp(-r/0.36935)*erfc((r-0.51523)/0.36823) with norm 6.826
       Charge density: gaussian nuclear width 0.478731 with net site charge 0.826
       Polarizability: cuspless exponential with width 0.32 and norm 3.73
       Hard sphere radius: 2.57003 bohrs
       Positions in reference frame:
         [ +0.000000 +0.000000 +0.000000 ]
     Initializing site 'H'
       Electron density: proportional to exp(-r/0.34641)*erfc((r-0)/0.390882) with norm 0.587
       Charge density: gaussian nuclear width 0.377945 with net site charge -0.413
       Polarizability: cuspless exponential with width 0.39 and norm 3.3
       Positions in reference frame:
         [ +0.000000 -1.441945 +1.122523 ]
         [ +0.000000 +1.441945 +1.122523 ]
     Net charge: 0   dipole magnitude: 0.927204
     Initializing spherical shell mfKernel with radius 2.61727 Bohr
     deltaS corrections:
       site 'O': -7.54299
       site 'H': -6.83917
   Initializing fluid molecule 'Na+'
     Initializing site 'Na'
       Electron density: proportional to exp(-r/0.19682)*erfc((r-0.71491)/0.41314) with norm 8.1383
       Charge density: gaussian nuclear width 0.365347 with net site charge -1
       Hard sphere radius: 1.86327 bohrs
       Positions in reference frame:
         [ +0.000000 +0.000000 +0.000000 ]
     Net charge: -1   dipole magnitude: 0
     Initializing gaussian mfKernel with width: 1.55004 Bohr
     deltaS corrections:
       site 'Na': -22.3555
   Initializing fluid molecule 'F-'
     Initializing site 'F'
       Electron density: proportional to exp(-r/0.38886)*erfc((r-0)/0.438782) with norm 8
       Charge density: gaussian nuclear width 0.374796 with net site charge 1
       Hard sphere radius: 2.39995 bohrs
       Positions in reference frame:
         [ +0.000000 +0.000000 +0.000000 ]
     Net charge: 1   dipole magnitude: 0
     Initializing gaussian mfKernel with width: 1.59012 Bohr
     deltaS corrections:
       site 'F': -9.04335

Correction to mu due to finite nuclear width = -0.0113812
   Cavity determined by nc: 0.00142 and sigma: 0.707107
   Nonlocal vdW cavity from gaussian model electron density with norm = 8 and sigma = 0.993594 bohr
   Charge asymmetry in cavity with sensitivity pCavity = 36.5 e-bohr/Eh
   Electrostatic cavity expanded by eta = 1.46 bohrs
   Weighted density cavitation model constrained by Nbulk: 0.0049383 bohr^-3, Pvap: 3.14029 kPa, Rvdw: 2.61727 bohr and sigmaBulk: 4.62e-05 Eh/bohr^2 at T: 298 K.
   Weighted density dispersion model using vdW pair potentials with single solvent site with sqrtC6eff: 0.77 SI.
WARNING: Vibrations: switching off translationSym and rotationSym since useConstraints is on.

---- Citations for features of the code used in this run ----

   Software package:
      R. Sundararaman, K. Letchworth-Weaver, K.A. Schwarz, D. Gunceler, Y. Ozhabes and T.A. Arias, 'JDFTx: software for joint density-functional theory', SoftwareX 6, 278 (2017)

   gga-PBE exchange-correlation functional:
      J.P. Perdew, K. Burke and M. Ernzerhof, Phys. Rev. Lett. 77, 3865 (1996)

   Pseudopotentials:
      KF Garrity, JW Bennett, KM Rabe and D Vanderbilt, Comput. Mater. Sci. 81, 446 (2014)

   DFT-D3 dispersion correction:
      S. Grimme, J. Antony, S. Ehrlich and H. Krieg, J. Chem. Phys. 132, 154104 (2010)

   DFT-D2 dispersion correction:
      S. Grimme, J. Comput. Chem. 27, 1787 (2006)

   Charge-asymmetric nonlocally-determined local-electric (CANDLE) solvation model:
      R. Sundararaman and W.A. Goddard III, J. Chem. Phys. 142, 064107 (2015)

   Total energy minimization with Auxiliary Hamiltonian:
      C. Freysoldt, S. Boeck, and J. Neugebauer, Phys. Rev. B 79, 241103(R) (2009)

   Linear-tetrahedron sampling for density of states:
      G. Lehmann and M. Taut, Phys. status solidi (b) 54, 469 (1972)

This list may not be complete. Please suggest additional citations or
report any other bugs at https://github.com/shankar1729/jdftx/issues

Initialization completed successfully at t[s]:   4789.43

------ Vibrations::calculate() -------
WARNING: Vibrations module is experimental. Please report bugs!
Compare results with and without symmetries and report discrepancies.
Degrees of freedom: 18 total, 18 symmetry-independent.

Computing DFT-D3 correction:
# coordination-number C 3.301 3.322 3.335 3.333 3.313 3.290 3.326 3.579 3.331 3.314 3.304 3.333 3.306 3.301 3.326 3.617 3.265 3.300 3.319 3.335 3.328 3.303 3.302 3.327 3.336 3.319 3.300 3.268 3.570 3.326 3.302 3.307 3.325 3.303 3.314 3.330 3.618 3.327 3.289 3.313 3.333 3.335 3.322 3.301 3.000
# coordination-number N 3.178 3.178 3.176 3.183
# coordination-number Ti 7.480
# coordination-number O 2.000 1.051 1.983
# coordination-number H 1.002 0.993
# diagonal-C6 C 24.28 24.06 23.92 23.94 24.16 24.37 24.02 20.54 23.96 24.14 24.25 23.94 24.23 24.27 24.02 20.08 24.59 24.28 24.09 23.92 24.00 24.25 24.26 24.00 23.91 24.09 24.28 24.57 20.65 24.02 24.26 24.21 24.03 24.26 24.15 23.97 20.07 24.01 24.38 24.16 23.95 23.92 24.06 24.27 25.67
# diagonal-C6 N 15.60 15.60 15.60 15.60
# diagonal-C6 Ti 321.59
# diagonal-C6 O 10.41 12.77 10.41
# diagonal-C6 H 3.09 3.09
EvdW_6 =   -0.044040
EvdW_8 =   -0.033561
Fluid solver invoked on fresh (random / LCAO) wavefunctions
Running a vacuum solve first:

-------- Initial electronic minimization -----------
	FillingsUpdate:  mu: -0.203110973  nElectrons: 232.000000  magneticMoment: [ Abs: 0.40522  Tot: -0.39009 ]
ElecMinimize: Iter:   0  F: -401.372029909336504  |grad|_K:  1.447e-04  alpha:  1.000e+00
	FillingsUpdate:  mu: -0.117466965  nElectrons: 232.000000  magneticMoment: [ Abs: 0.76134  Tot: -0.72333 ]
	SubspaceRotationAdjust: set factor to 0.532
ElecMinimize: Iter:   1  F: -404.306478007440035  |grad|_K:  1.809e-04  alpha:  6.545e-01  linmin:  8.156e-04  t[s]:   5022.80
ElecMinimize: 	Step increased F by 2.395961e-01, reducing alpha to 2.074677e-02.
	FillingsUpdate:  mu: -0.142501488  nElectrons: 232.000000  magneticMoment: [ Abs: 0.48986  Tot: -0.45343 ]
	SubspaceRotationAdjust: set factor to 0.672
ElecMinimize: Iter:   2  F: -404.439126952994741  |grad|_K:  4.748e-05  alpha:  2.075e-02  linmin: -1.811e-03  t[s]:   5259.18
ElecMinimize: 	Predicted alpha/alphaT>3.000000, increasing alphaT to 6.224032e-02.
ElecMinimize: 	Predicted alpha/alphaT>3.000000, increasing alphaT to 1.867209e-01.
	FillingsUpdate:  mu: -0.079811964  nElectrons: 232.000000  magneticMoment: [ Abs: 0.08917  Tot: -0.00062 ]
	SubspaceRotationAdjust: set factor to 0.531
ElecMinimize: Iter:   3  F: -404.644900682022183  |grad|_K:  3.176e-05  alpha:  3.843e-01  linmin: -6.791e-04  t[s]:   5474.15
	FillingsUpdate:  mu: -0.108156288  nElectrons: 232.000000  magneticMoment: [ Abs: 0.07329  Tot: -0.01540 ]
	SubspaceRotationAdjust: set factor to 0.386
ElecMinimize: Iter:   4  F: -404.742758610060264  |grad|_K:  1.523e-05  alpha:  4.058e-01  linmin: -2.056e-04  t[s]:   5619.32
	FillingsUpdate:  mu: -0.102230882  nElectrons: 232.000000  magneticMoment: [ Abs: 0.21325  Tot: -0.19654 ]
	SubspaceRotationAdjust: set factor to 0.26
ElecMinimize: Iter:   5  F: -404.768269670830932  |grad|_K:  1.815e-05  alpha:  5.372e-01  linmin:  1.131e-03  t[s]:   5766.45
	FillingsUpdate:  mu: -0.101145368  nElectrons: 232.000000  magneticMoment: [ Abs: 0.11774  Tot: -0.10044 ]
	SubspaceRotationAdjust: set factor to 0.278
ElecMinimize: Iter:   6  F: -404.778221738555771  |grad|_K:  1.196e-05  alpha:  2.319e-01  linmin:  4.574e-05  t[s]:   5913.78
	FillingsUpdate:  mu: -0.105086461  nElectrons: 232.000000  magneticMoment: [ Abs: 0.04866  Tot: -0.02046 ]
	SubspaceRotationAdjust: set factor to 0.371
ElecMinimize: Iter:   7  F: -404.786658352979885  |grad|_K:  6.859e-06  alpha:  2.659e-01  linmin: -4.967e-04  t[s]:   6060.32
	FillingsUpdate:  mu: -0.105033838  nElectrons: 232.000000  magneticMoment: [ Abs: 0.03241  Tot: -0.00571 ]
	SubspaceRotationAdjust: set factor to 0.333
ElecMinimize: Iter:   8  F: -404.791637285622130  |grad|_K:  4.471e-06  alpha:  4.123e-01  linmin: -1.639e-04  t[s]:   6207.14
	FillingsUpdate:  mu: -0.106363847  nElectrons: 232.000000  magneticMoment: [ Abs: 0.02536  Tot: -0.00392 ]
	SubspaceRotationAdjust: set factor to 0.361
ElecMinimize: Iter:   9  F: -404.793686647721529  |grad|_K:  2.744e-06  alpha:  4.548e-01  linmin:  1.143e-05  t[s]:   6354.09
	FillingsUpdate:  mu: -0.107145076  nElectrons: 232.000000  magneticMoment: [ Abs: 0.02004  Tot: -0.00299 ]
	SubspaceRotationAdjust: set factor to 0.354
ElecMinimize: Iter:  10  F: -404.794561747746855  |grad|_K:  2.105e-06  alpha:  5.340e-01  linmin:  2.236e-05  t[s]:   6500.90
	FillingsUpdate:  mu: -0.107758563  nElectrons: 232.000000  magneticMoment: [ Abs: 0.01490  Tot: -0.00159 ]
	SubspaceRotationAdjust: set factor to 0.371
ElecMinimize: Iter:  11  F: -404.795022342295226  |grad|_K:  1.436e-06  alpha:  4.780e-01  linmin:  1.471e-06  t[s]:   6647.50
	FillingsUpdate:  mu: -0.107484894  nElectrons: 232.000000  magneticMoment: [ Abs: 0.01112  Tot: -0.00075 ]
	SubspaceRotationAdjust: set factor to 0.369
ElecMinimize: Iter:  12  F: -404.795241844505654  |grad|_K:  1.006e-06  alpha:  4.889e-01  linmin: -1.162e-06  t[s]:   6794.76
	FillingsUpdate:  mu: -0.107496992  nElectrons: 232.000000  magneticMoment: [ Abs: 0.00819  Tot: -0.00032 ]
	SubspaceRotationAdjust: set factor to 0.369
ElecMinimize: Iter:  13  F: -404.795366260258163  |grad|_K:  7.962e-07  alpha:  5.640e-01  linmin:  1.918e-06  t[s]:   6941.48
	FillingsUpdate:  mu: -0.107911224  nElectrons: 232.000000  magneticMoment: [ Abs: 0.00631  Tot: -0.00007 ]
	SubspaceRotationAdjust: set factor to 0.364
ElecMinimize: Iter:  14  F: -404.795427040379593  |grad|_K:  5.097e-07  alpha:  4.402e-01  linmin:  4.121e-07  t[s]:   7088.86
	FillingsUpdate:  mu: -0.107879143  nElectrons: 232.000000  magneticMoment: [ Abs: 0.00466  Tot: +0.00009 ]
	SubspaceRotationAdjust: set factor to 0.374
ElecMinimize: Iter:  15  F: -404.795459347620294  |grad|_K:  3.845e-07  alpha:  5.708e-01  linmin:  1.216e-07  t[s]:   7235.52
	FillingsUpdate:  mu: -0.107679178  nElectrons: 232.000000  magneticMoment: [ Abs: 0.00365  Tot: +0.00014 ]
	SubspaceRotationAdjust: set factor to 0.362
ElecMinimize: Iter:  16  F: -404.795473525370596  |grad|_K:  2.704e-07  alpha:  4.400e-01  linmin:  1.268e-06  t[s]:   7382.27
	FillingsUpdate:  mu: -0.107736535  nElectrons: 232.000000  magneticMoment: [ Abs: 0.00267  Tot: +0.00014 ]
	SubspaceRotationAdjust: set factor to 0.374
ElecMinimize: Iter:  17  F: -404.795483046682421  |grad|_K:  2.077e-07  alpha:  5.978e-01  linmin:  1.966e-06  t[s]:   7529.14
	FillingsUpdate:  mu: -0.107858364  nElectrons: 232.000000  magneticMoment: [ Abs: 0.00203  Tot: +0.00012 ]
	SubspaceRotationAdjust: set factor to 0.377
ElecMinimize: Iter:  18  F: -404.795487431997117  |grad|_K:  1.456e-07  alpha:  4.666e-01  linmin: -3.991e-06  t[s]:   7676.69
	FillingsUpdate:  mu: -0.107835500  nElectrons: 232.000000  magneticMoment: [ Abs: 0.00151  Tot: +0.00008 ]
	SubspaceRotationAdjust: set factor to 0.363
ElecMinimize: Iter:  19  F: -404.795489840053506  |grad|_K:  1.119e-07  alpha:  5.212e-01  linmin:  1.156e-06  t[s]:   7823.63
	FillingsUpdate:  mu: -0.107791875  nElectrons: 232.000000  magneticMoment: [ Abs: 0.00107  Tot: +0.00004 ]
	SubspaceRotationAdjust: set factor to 0.385
ElecMinimize: Iter:  20  F: -404.795491321698648  |grad|_K:  8.044e-08  alpha:  5.433e-01  linmin:  1.432e-06  t[s]:   7970.70
	FillingsUpdate:  mu: -0.107801351  nElectrons: 232.000000  magneticMoment: [ Abs: 0.00079  Tot: +0.00002 ]
	SubspaceRotationAdjust: set factor to 0.361
ElecMinimize: Iter:  21  F: -404.795492013136879  |grad|_K:  6.215e-08  alpha:  4.906e-01  linmin: -3.254e-07  t[s]:   8117.67
	FillingsUpdate:  mu: -0.107799549  nElectrons: 232.000000  magneticMoment: [ Abs: 0.00054  Tot: -0.00000 ]
	SubspaceRotationAdjust: set factor to 0.378
ElecMinimize: Iter:  22  F: -404.795492460503169  |grad|_K:  4.192e-08  alpha:  5.315e-01  linmin:  7.818e-07  t[s]:   8264.52
	FillingsUpdate:  mu: -0.107797549  nElectrons: 232.000000  magneticMoment: [ Abs: 0.00038  Tot: -0.00001 ]
	SubspaceRotationAdjust: set factor to 0.371
ElecMinimize: Iter:  23  F: -404.795492659953879  |grad|_K:  3.324e-08  alpha:  5.208e-01  linmin:  1.108e-06  t[s]:   8411.07
	FillingsUpdate:  mu: -0.107808239  nElectrons: 232.000000  magneticMoment: [ Abs: 0.00026  Tot: -0.00002 ]
	SubspaceRotationAdjust: set factor to 0.37
ElecMinimize: Iter:  24  F: -404.795492781796895  |grad|_K:  2.363e-08  alpha:  5.065e-01  linmin: -6.222e-07  t[s]:   8557.89
	FillingsUpdate:  mu: -0.107806751  nElectrons: 232.000000  magneticMoment: [ Abs: 0.00017  Tot: -0.00001 ]
	SubspaceRotationAdjust: set factor to 0.378
ElecMinimize: Iter:  25  F: -404.795492850322375  |grad|_K:  1.833e-08  alpha:  5.641e-01  linmin:  5.027e-07  t[s]:   8704.61
	FillingsUpdate:  mu: -0.107801362  nElectrons: 232.000000  magneticMoment: [ Abs: 0.00010  Tot: -0.00001 ]
	SubspaceRotationAdjust: set factor to 0.37
ElecMinimize: Iter:  26  F: -404.795492887453804  |grad|_K:  1.385e-08  alpha:  5.073e-01  linmin:  1.326e-06  t[s]:   8851.41
ElecMinimize: Converged (|Delta F|<1.000000e-07 for 2 iters).
Setting wave functions to eigenvectors of Hamiltonian
Converging empty states (this may take a while): |deigs|: 1.008e-02
Vacuum energy after initial minimize, F = -404.795492887453804


-------- Electronic minimization -----------
	Linear fluid (dielectric constant: 78.4, screening length: 8.12261 Bohr) occupying 0.709863 of unit cell:	Completed after 24 iterations at t[s]:   9713.43
	FillingsUpdate:  mu: -0.160658489  nElectrons: 232.000000  magneticMoment: [ Abs: 0.00005  Tot: -0.00000 ]
ElecMinimize: Iter:   0  F: -404.802445304296896  |grad|_K:  4.821e-06  alpha:  1.000e+00
	Linear fluid (dielectric constant: 78.4, screening length: 8.12261 Bohr) occupying 0.711447 of unit cell:	Completed after 16 iterations at t[s]:   9856.50
	Linear fluid (dielectric constant: 78.4, screening length: 8.12261 Bohr) occupying 0.711434 of unit cell:	Completed after 2 iterations at t[s]:   9904.68
	FillingsUpdate:  mu: -0.163360192  nElectrons: 232.000000  magneticMoment: [ Abs: 0.00003  Tot: -0.00000 ]
	SubspaceRotationAdjust: set factor to 0.438
ElecMinimize: Iter:   1  F: -404.807464906071914  |grad|_K:  3.041e-06  alpha:  9.925e-01  linmin: -2.099e-04  t[s]:   9969.20
	Linear fluid (dielectric constant: 78.4, screening length: 8.12261 Bohr) occupying 0.712398 of unit cell:	Completed after 11 iterations at t[s]:  10031.39
	Linear fluid (dielectric constant: 78.4, screening length: 8.12261 Bohr) occupying 0.712063 of unit cell:	Completed after 9 iterations at t[s]:  10083.54
	FillingsUpdate:  mu: -0.162182580  nElectrons: 232.000000  magneticMoment: [ Abs: 0.00003  Tot: -0.00000 ]
	SubspaceRotationAdjust: set factor to 0.41
ElecMinimize: Iter:   2  F: -404.808929851255641  |grad|_K:  2.333e-06  alpha:  6.577e-01  linmin: -5.383e-07  t[s]:  10146.60
	Linear fluid (dielectric constant: 78.4, screening length: 8.12261 Bohr) occupying 0.712565 of unit cell:	Completed after 9 iterations at t[s]:  10206.55
	Linear fluid (dielectric constant: 78.4, screening length: 8.12261 Bohr) occupying 0.712463 of unit cell:	Completed after 4 iterations at t[s]:  10254.57
	FillingsUpdate:  mu: -0.163302165  nElectrons: 232.000000  magneticMoment: [ Abs: 0.00002  Tot: -0.00000 ]
	SubspaceRotationAdjust: set factor to 0.41
ElecMinimize: Iter:   3  F: -404.809551288182774  |grad|_K:  1.297e-06  alpha:  5.251e-01  linmin: -2.402e-06  t[s]:  10317.00
	Linear fluid (dielectric constant: 78.4, screening length: 8.12261 Bohr) occupying 0.712615 of unit cell:	Completed after 7 iterations at t[s]:  10375.49
	Linear fluid (dielectric constant: 78.4, screening length: 8.12261 Bohr) occupying 0.712627 of unit cell:	Completed after 2 iterations at t[s]:  10422.09
	FillingsUpdate:  mu: -0.163243418  nElectrons: 232.000000  magneticMoment: [ Abs: 0.00001  Tot: -0.00000 ]
	SubspaceRotationAdjust: set factor to 0.429
ElecMinimize: Iter:   4  F: -404.809760352623528  |grad|_K:  6.444e-07  alpha:  5.690e-01  linmin:  9.852e-07  t[s]:  10484.49
	Linear fluid (dielectric constant: 78.4, screening length: 8.12261 Bohr) occupying 0.712638 of unit cell:	Completed after 4 iterations at t[s]:  10540.82
	Linear fluid (dielectric constant: 78.4, screening length: 8.12261 Bohr) occupying 0.712641 of unit cell:	Completed after 2 iterations at t[s]:  10587.31
	FillingsUpdate:  mu: -0.163280445  nElectrons: 232.000000  magneticMoment: [ Abs: 0.00001  Tot: -0.00000 ]
	SubspaceRotationAdjust: set factor to 0.45
ElecMinimize: Iter:   5  F: -404.809831762242652  |grad|_K:  3.332e-07  alpha:  7.903e-01  linmin:  2.220e-06  t[s]:  10649.38
	Linear fluid (dielectric constant: 78.4, screening length: 8.12261 Bohr) occupying 0.712619 of unit cell:	Completed after 4 iterations at t[s]:  10704.94
	Linear fluid (dielectric constant: 78.4, screening length: 8.12261 Bohr) occupying 0.712618 of unit cell:	Completed after 0 iterations at t[s]:  10748.28
	FillingsUpdate:  mu: -0.163263477  nElectrons: 232.000000  magneticMoment: [ Abs: 0.00001  Tot: -0.00000 ]
	SubspaceRotationAdjust: set factor to 0.441
ElecMinimize: Iter:   6  F: -404.809851099129503  |grad|_K:  2.183e-07  alpha:  8.006e-01  linmin: -2.876e-06  t[s]:  10812.32
	Linear fluid (dielectric constant: 78.4, screening length: 8.12261 Bohr) occupying 0.712599 of unit cell:	Completed after 3 iterations at t[s]:  10868.42
	Linear fluid (dielectric constant: 78.4, screening length: 8.12261 Bohr) occupying 0.712606 of unit cell:	Completed after 2 iterations at t[s]:  10914.88
	FillingsUpdate:  mu: -0.163322529  nElectrons: 232.000000  magneticMoment: [ Abs: 0.00001  Tot: -0.00000 ]
	SubspaceRotationAdjust: set factor to 0.426
ElecMinimize: Iter:   7  F: -404.809856525517660  |grad|_K:  1.525e-07  alpha:  5.236e-01  linmin:  8.716e-06  t[s]:  10975.55
	Linear fluid (dielectric constant: 78.4, screening length: 8.12261 Bohr) occupying 0.712597 of unit cell:	Completed after 3 iterations at t[s]:  11029.58
	Linear fluid (dielectric constant: 78.4, screening length: 8.12261 Bohr) occupying 0.712596 of unit cell:	Completed after 0 iterations at t[s]:  11072.25
	FillingsUpdate:  mu: -0.163296204  nElectrons: 232.000000  magneticMoment: [ Abs: 0.00000  Tot: -0.00000 ]
	SubspaceRotationAdjust: set factor to 0.414
ElecMinimize: Iter:   8  F: -404.809859512744538  |grad|_K:  8.489e-08  alpha:  5.883e-01  linmin: -4.110e-04  t[s]:  11132.96
	Linear fluid (dielectric constant: 78.4, screening length: 8.12261 Bohr) occupying 0.712593 of unit cell:	Completed after 2 iterations at t[s]:  11189.22
	Linear fluid (dielectric constant: 78.4, screening length: 8.12261 Bohr) occupying 0.712592 of unit cell:	Completed after 0 iterations at t[s]:  11237.44
	FillingsUpdate:  mu: -0.163299832  nElectrons: 232.000000  magneticMoment: [ Abs: 0.00000  Tot: -0.00000 ]
	SubspaceRotationAdjust: set factor to 0.434
ElecMinimize: Iter:   9  F: -404.809860825486965  |grad|_K:  5.880e-08  alpha:  8.018e-01  linmin: -6.813e-05  t[s]:  11309.92
	Linear fluid (dielectric constant: 78.4, screening length: 8.12261 Bohr) occupying 0.712590 of unit cell:	Completed after 2 iterations at t[s]:  11373.82
	Linear fluid (dielectric constant: 78.4, screening length: 8.12261 Bohr) occupying 0.712591 of unit cell:	Completed after 0 iterations at t[s]:  11425.35
	FillingsUpdate:  mu: -0.163318992  nElectrons: 232.000000  magneticMoment: [ Abs: 0.00000  Tot: -0.00000 ]
	SubspaceRotationAdjust: set factor to 0.432
ElecMinimize: Iter:  10  F: -404.809861298289547  |grad|_K:  4.695e-08  alpha:  6.069e-01  linmin:  4.316e-05  t[s]:  11498.86
	Linear fluid (dielectric constant: 78.4, screening length: 8.12261 Bohr) occupying 0.712588 of unit cell:	Completed after 2 iterations at t[s]:  11563.10
	Linear fluid (dielectric constant: 78.4, screening length: 8.12261 Bohr) occupying 0.712589 of unit cell:	Completed after 0 iterations at t[s]:  11614.60
	FillingsUpdate:  mu: -0.163301645  nElectrons: 232.000000  magneticMoment: [ Abs: 0.00000  Tot: +0.00000 ]
	SubspaceRotationAdjust: set factor to 0.373
ElecMinimize: Iter:  11  F: -404.809861513195983  |grad|_K:  3.433e-08  alpha:  4.705e-01  linmin:  3.429e-05  t[s]:  11687.43
	Linear fluid (dielectric constant: 78.4, screening length: 8.12261 Bohr) occupying 0.712588 of unit cell:	Completed after 1 iterations at t[s]:  11750.44
	Linear fluid (dielectric constant: 78.4, screening length: 8.12261 Bohr) occupying 0.712588 of unit cell:	Completed after 0 iterations at t[s]:  11802.23
	FillingsUpdate:  mu: -0.163318500  nElectrons: 232.000000  magneticMoment: [ Abs: 0.00000  Tot: +0.00000 ]
	SubspaceRotationAdjust: set factor to 0.395
ElecMinimize: Iter:  12  F: -404.809861616447506  |grad|_K:  1.799e-08  alpha:  4.230e-01  linmin: -1.504e-04  t[s]:  11875.32
	Linear fluid (dielectric constant: 78.4, screening length: 8.12261 Bohr) occupying 0.712589 of unit cell:	Completed after 0 iterations at t[s]:  11935.88
	Linear fluid (dielectric constant: 78.4, screening length: 8.12261 Bohr) occupying 0.712589 of unit cell:	Completed after 1 iterations at t[s]:  11988.43
	FillingsUpdate:  mu: -0.163315947  nElectrons: 232.000000  magneticMoment: [ Abs: 0.00000  Tot: +0.00000 ]
	SubspaceRotationAdjust: set factor to 0.398
ElecMinimize: Iter:  13  F: -404.809861651948893  |grad|_K:  1.703e-08  alpha:  7.856e-01  linmin:  2.316e-04  t[s]:  12058.82
	Linear fluid (dielectric constant: 78.4, screening length: 8.12261 Bohr) occupying 0.712590 of unit cell:	Completed after 0 iterations at t[s]:  12117.24
	Linear fluid (dielectric constant: 78.4, screening length: 8.12261 Bohr) occupying 0.712589 of unit cell:	Completed after 0 iterations at t[s]:  12166.53
	FillingsUpdate:  mu: -0.163316232  nElectrons: 232.000000  magneticMoment: [ Abs: 0.00000  Tot: +0.00000 ]
	SubspaceRotationAdjust: set factor to 0.486
ElecMinimize: Iter:  14  F: -404.809861681336258  |grad|_K:  1.245e-08  alpha:  5.674e-01  linmin:  1.876e-06  t[s]:  12236.61
ElecMinimize: Converged (|Delta F|<1.000000e-07 for 2 iters).
Setting wave functions to eigenvectors of Hamiltonian
Converging empty states (this may take a while): |deigs|: 8.791e-04
Single-point solvation energy estimate, DeltaF = -0.014368793882454

Computing DFT-D3 correction:
# coordination-number C 3.301 3.322 3.335 3.333 3.313 3.290 3.326 3.579 3.331 3.314 3.304 3.333 3.306 3.301 3.326 3.617 3.265 3.300 3.319 3.335 3.328 3.303 3.302 3.327 3.336 3.319 3.300 3.268 3.570 3.326 3.302 3.307 3.325 3.303 3.314 3.330 3.618 3.327 3.289 3.313 3.333 3.335 3.322 3.301 3.000
# coordination-number N 3.178 3.178 3.176 3.183
# coordination-number Ti 7.480
# coordination-number O 2.000 1.051 1.983
# coordination-number H 1.002 0.993
# diagonal-C6 C 24.28 24.06 23.92 23.94 24.16 24.37 24.02 20.54 23.96 24.14 24.25 23.94 24.23 24.27 24.02 20.08 24.59 24.28 24.09 23.92 24.00 24.25 24.26 24.00 23.91 24.09 24.28 24.57 20.65 24.02 24.26 24.21 24.03 24.26 24.15 23.97 20.07 24.01 24.38 24.16 23.95 23.92 24.06 24.27 25.67
# diagonal-C6 N 15.60 15.60 15.60 15.60
# diagonal-C6 Ti 321.59
# diagonal-C6 O 10.41 12.77 10.41
# diagonal-C6 H 3.09 3.09
EvdW_6 =   -0.044040
EvdW_8 =   -0.033561
Completed 1 of 19 configurations.

Computing DFT-D3 correction:
# coordination-number C 3.301 3.322 3.335 3.333 3.313 3.290 3.326 3.579 3.331 3.314 3.304 3.333 3.306 3.301 3.326 3.617 3.265 3.300 3.319 3.335 3.328 3.303 3.302 3.327 3.336 3.319 3.300 3.268 3.570 3.326 3.302 3.307 3.325 3.303 3.314 3.330 3.618 3.327 3.289 3.313 3.333 3.335 3.322 3.301 3.000
# coordination-number N 3.178 3.178 3.176 3.183
# coordination-number Ti 7.480
# coordination-number O 2.000 1.051 1.983
# coordination-number H 1.002 0.993
# diagonal-C6 C 24.28 24.06 23.92 23.94 24.16 24.37 24.02 20.54 23.96 24.14 24.25 23.94 24.23 24.27 24.02 20.08 24.59 24.28 24.09 23.92 24.00 24.25 24.26 24.00 23.91 24.09 24.28 24.57 20.65 24.02 24.26 24.21 24.03 24.26 24.15 23.97 20.07 24.01 24.38 24.16 23.95 23.92 24.06 24.27 25.67
# diagonal-C6 N 15.60 15.60 15.60 15.60
# diagonal-C6 Ti 321.59
# diagonal-C6 O 10.41 12.77 10.41
# diagonal-C6 H 3.09 3.09
EvdW_6 =   -0.044039
EvdW_8 =   -0.033561

-------- Electronic minimization -----------
	Linear fluid (dielectric constant: 78.4, screening length: 8.12261 Bohr) occupying 0.712587 of unit cell:	Completed after 6 iterations at t[s]:  13149.87
	FillingsUpdate:  mu: -0.163305579  nElectrons: 232.000000  magneticMoment: [ Abs: 0.00000  Tot: +0.00000 ]
ElecMinimize: Iter:   0  F: -404.809832798487037  |grad|_K:  3.529e-07  alpha:  1.000e+00
	Linear fluid (dielectric constant: 78.4, screening length: 8.12261 Bohr) occupying 0.712587 of unit cell:	Completed after 4 iterations at t[s]:  13298.61
	Linear fluid (dielectric constant: 78.4, screening length: 8.12261 Bohr) occupying 0.712587 of unit cell:	Completed after 3 iterations at t[s]:  13353.18
	FillingsUpdate:  mu: -0.163347010  nElectrons: 232.000000  magneticMoment: [ Abs: 0.00000  Tot: +0.00000 ]
	SubspaceRotationAdjust: set factor to 0.585
ElecMinimize: Iter:   1  F: -404.809852729006195  |grad|_K:  1.677e-07  alpha:  7.340e-01  linmin:  2.070e-05  t[s]:  13425.25
	Linear fluid (dielectric constant: 78.4, screening length: 8.12261 Bohr) occupying 0.712585 of unit cell:	Completed after 3 iterations at t[s]:  13489.28
	Linear fluid (dielectric constant: 78.4, screening length: 8.12261 Bohr) occupying 0.712586 of unit cell:	Completed after 1 iterations at t[s]:  13541.78
	FillingsUpdate:  mu: -0.163287196  nElectrons: 232.000000  magneticMoment: [ Abs: 0.00000  Tot: +0.00000 ]
	SubspaceRotationAdjust: set factor to 0.567
ElecMinimize: Iter:   2  F: -404.809856418375261  |grad|_K:  1.319e-07  alpha:  6.035e-01  linmin:  5.146e-05  t[s]:  13614.20
	Linear fluid (dielectric constant: 78.4, screening length: 8.12261 Bohr) occupying 0.712586 of unit cell:	Completed after 2 iterations at t[s]:  13677.39
	Linear fluid (dielectric constant: 78.4, screening length: 8.12261 Bohr) occupying 0.712586 of unit cell:	Completed after 2 iterations at t[s]:  13730.45
	FillingsUpdate:  mu: -0.163337071  nElectrons: 232.000000  magneticMoment: [ Abs: 0.00000  Tot: +0.00000 ]
	SubspaceRotationAdjust: set factor to 0.456
ElecMinimize: Iter:   3  F: -404.809858019689955  |grad|_K:  7.234e-08  alpha:  4.327e-01  linmin:  2.696e-05  t[s]:  13802.82
	Linear fluid (dielectric constant: 78.4, screening length: 8.12261 Bohr) occupying 0.712586 of unit cell:	Completed after 2 iterations at t[s]:  13865.42
	Linear fluid (dielectric constant: 78.4, screening length: 8.12261 Bohr) occupying 0.712586 of unit cell:	Completed after 0 iterations at t[s]:  13916.25
	FillingsUpdate:  mu: -0.163318547  nElectrons: 232.000000  magneticMoment: [ Abs: 0.00000  Tot: +0.00000 ]
	SubspaceRotationAdjust: set factor to 0.379
ElecMinimize: Iter:   4  F: -404.809858505410489  |grad|_K:  2.786e-08  alpha:  4.299e-01  linmin: -1.222e-04  t[s]:  13989.47
	Linear fluid (dielectric constant: 78.4, screening length: 8.12261 Bohr) occupying 0.712586 of unit cell:	Completed after 0 iterations at t[s]:  14049.73
	Linear fluid (dielectric constant: 78.4, screening length: 8.12261 Bohr) occupying 0.712586 of unit cell:	Completed after 0 iterations at t[s]:  14100.16
	FillingsUpdate:  mu: -0.163318371  nElectrons: 232.000000  magneticMoment: [ Abs: 0.00000  Tot: +0.00000 ]
	SubspaceRotationAdjust: set factor to 0.489
ElecMinimize: Iter:   5  F: -404.809858637463492  |grad|_K:  1.661e-08  alpha:  7.599e-01  linmin:  6.686e-06  t[s]:  14172.10
	Linear fluid (dielectric constant: 78.4, screening length: 8.12261 Bohr) occupying 0.712585 of unit cell:	Completed after 2 iterations at t[s]:  14235.10
	Linear fluid (dielectric constant: 78.4, screening length: 8.12261 Bohr) occupying 0.712586 of unit cell:	Completed after 0 iterations at t[s]:  14285.58
ElecMinimize: 	Step increased F by 2.472689e-11, reducing alpha to 2.324554e-02.
	Linear fluid (dielectric constant: 78.4, screening length: 8.12261 Bohr) occupying 0.712586 of unit cell:	Completed after 0 iterations at t[s]:  14407.55
	FillingsUpdate:  mu: -0.163322100  nElectrons: 232.000000  magneticMoment: [ Abs: 0.00000  Tot: +0.00000 ]
	SubspaceRotationAdjust: set factor to 0.44
ElecMinimize: Iter:   6  F: -404.809858641108576  |grad|_K:  2.696e-08  alpha:  2.325e-02  linmin:  6.323e-04  t[s]:  14479.92
	Linear fluid (dielectric constant: 78.4, screening length: 8.12261 Bohr) occupying 0.712586 of unit cell:	Completed after 0 iterations at t[s]:  14540.24
ElecMinimize: 	Predicted alpha/alphaT>3.000000, increasing alphaT to 6.973663e-02.
	Linear fluid (dielectric constant: 78.4, screening length: 8.12261 Bohr) occupying 0.712586 of unit cell:	Completed after 0 iterations at t[s]:  14590.87
	Linear fluid (dielectric constant: 78.4, screening length: 8.12261 Bohr) occupying 0.712586 of unit cell:	Completed after 0 iterations at t[s]:  14641.25
	FillingsUpdate:  mu: -0.163321986  nElectrons: 232.000000  magneticMoment: [ Abs: 0.00000  Tot: +0.00000 ]
	SubspaceRotationAdjust: set factor to 0.555
ElecMinimize: Iter:   7  F: -404.809858659715246  |grad|_K:  2.368e-08  alpha:  1.769e-01  linmin:  7.653e-05  t[s]:  14714.77
ElecMinimize: Converged (|Delta F|<1.000000e-07 for 2 iters).
Setting wave functions to eigenvectors of Hamiltonian
Converging empty states (this may take a while): |deigs|: 7.664e-08

Computing DFT-D3 correction:
# coordination-number C 3.301 3.322 3.335 3.333 3.313 3.290 3.326 3.579 3.331 3.314 3.304 3.333 3.306 3.301 3.326 3.617 3.265 3.300 3.319 3.335 3.328 3.303 3.302 3.327 3.336 3.319 3.300 3.268 3.570 3.326 3.302 3.307 3.325 3.303 3.314 3.330 3.618 3.327 3.289 3.313 3.333 3.335 3.322 3.301 3.000
# coordination-number N 3.178 3.178 3.176 3.183
# coordination-number Ti 7.480
# coordination-number O 2.000 1.051 1.983
# coordination-number H 1.002 0.993
# diagonal-C6 C 24.28 24.06 23.92 23.94 24.16 24.37 24.02 20.54 23.96 24.14 24.25 23.94 24.23 24.27 24.02 20.08 24.59 24.28 24.09 23.92 24.00 24.25 24.26 24.00 23.91 24.09 24.28 24.57 20.65 24.02 24.26 24.21 24.03 24.26 24.15 23.97 20.07 24.01 24.38 24.16 23.95 23.92 24.06 24.27 25.67
# diagonal-C6 N 15.60 15.60 15.60 15.60
# diagonal-C6 Ti 321.59
# diagonal-C6 O 10.41 12.77 10.41
# diagonal-C6 H 3.09 3.09
EvdW_6 =   -0.044039
EvdW_8 =   -0.033561
Completed 2 of 19 configurations.

Computing DFT-D3 correction:
# coordination-number C 3.301 3.322 3.335 3.333 3.313 3.290 3.326 3.579 3.331 3.314 3.304 3.333 3.306 3.301 3.326 3.617 3.265 3.300 3.319 3.335 3.328 3.303 3.302 3.327 3.336 3.319 3.300 3.268 3.570 3.326 3.302 3.307 3.325 3.303 3.314 3.330 3.618 3.327 3.289 3.313 3.333 3.335 3.322 3.301 3.001
# coordination-number N 3.178 3.178 3.176 3.183
# coordination-number Ti 7.480
# coordination-number O 2.000 1.051 1.983
# coordination-number H 1.002 0.993
# diagonal-C6 C 24.28 24.06 23.92 23.94 24.16 24.37 24.02 20.54 23.96 24.14 24.25 23.94 24.23 24.27 24.02 20.08 24.59 24.28 24.09 23.92 24.00 24.25 24.26 24.00 23.91 24.09 24.28 24.57 20.65 24.02 24.26 24.21 24.03 24.26 24.15 23.97 20.07 24.01 24.38 24.16 23.95 23.92 24.06 24.27 25.67
# diagonal-C6 N 15.60 15.60 15.60 15.60
# diagonal-C6 Ti 321.59
# diagonal-C6 O 10.41 12.77 10.41
# diagonal-C6 H 3.09 3.09
EvdW_6 =   -0.044040
EvdW_8 =   -0.033561

-------- Electronic minimization -----------
	Linear fluid (dielectric constant: 78.4, screening length: 8.12261 Bohr) occupying 0.712595 of unit cell:	Completed after 7 iterations at t[s]:  14998.42
	FillingsUpdate:  mu: -0.163257662  nElectrons: 232.000000  magneticMoment: [ Abs: 0.00000  Tot: +0.00000 ]
ElecMinimize: Iter:   0  F: -404.809764323881723  |grad|_K:  6.908e-07  alpha:  1.000e+00
	Linear fluid (dielectric constant: 78.4, screening length: 8.12261 Bohr) occupying 0.712598 of unit cell:	Completed after 8 iterations at t[s]:  15149.17
	Linear fluid (dielectric constant: 78.4, screening length: 8.12261 Bohr) occupying 0.712597 of unit cell:	Completed after 4 iterations at t[s]:  15204.88
	FillingsUpdate:  mu: -0.163419226  nElectrons: 232.000000  magneticMoment: [ Abs: 0.00000  Tot: +0.00000 ]
	SubspaceRotationAdjust: set factor to 0.493
ElecMinimize: Iter:   1  F: -404.809820757766488  |grad|_K:  3.807e-07  alpha:  5.428e-01  linmin:  1.591e-05  t[s]:  15277.18
	Linear fluid (dielectric constant: 78.4, screening length: 8.12261 Bohr) occupying 0.712602 of unit cell:	Completed after 3 iterations at t[s]:  15341.04
	Linear fluid (dielectric constant: 78.4, screening length: 8.12261 Bohr) occupying 0.712601 of unit cell:	Completed after 2 iterations at t[s]:  15394.71
	FillingsUpdate:  mu: -0.163264289  nElectrons: 232.000000  magneticMoment: [ Abs: 0.00000  Tot: +0.00000 ]
	SubspaceRotationAdjust: set factor to 0.43
ElecMinimize: Iter:   2  F: -404.809835204595004  |grad|_K:  2.311e-07  alpha:  4.589e-01  linmin:  3.122e-05  t[s]:  15467.00
	Linear fluid (dielectric constant: 78.4, screening length: 8.12261 Bohr) occupying 0.712605 of unit cell:	Completed after 3 iterations at t[s]:  15530.62
	Linear fluid (dielectric constant: 78.4, screening length: 8.12261 Bohr) occupying 0.712605 of unit cell:	Completed after 0 iterations at t[s]:  15581.33
	FillingsUpdate:  mu: -0.163333516  nElectrons: 232.000000  magneticMoment: [ Abs: 0.00000  Tot: +0.00000 ]
	SubspaceRotationAdjust: set factor to 0.415
ElecMinimize: Iter:   3  F: -404.809841083783112  |grad|_K:  1.320e-07  alpha:  5.040e-01  linmin: -4.596e-04  t[s]:  15654.89
	Linear fluid (dielectric constant: 78.4, screening length: 8.12261 Bohr) occupying 0.712606 of unit cell:	Completed after 2 iterations at t[s]:  15717.62
	Linear fluid (dielectric constant: 78.4, screening length: 8.12261 Bohr) occupying 0.712606 of unit cell:	Completed after 0 iterations at t[s]:  15768.77
	FillingsUpdate:  mu: -0.163347961  nElectrons: 232.000000  magneticMoment: [ Abs: 0.00000  Tot: -0.00000 ]
	SubspaceRotationAdjust: set factor to 0.516
ElecMinimize: Iter:   4  F: -404.809843697185897  |grad|_K:  6.012e-08  alpha:  6.523e-01  linmin: -7.007e-04  t[s]:  15840.51
	Linear fluid (dielectric constant: 78.4, screening length: 8.12261 Bohr) occupying 0.712606 of unit cell:	Completed after 2 iterations at t[s]:  15903.30
	Linear fluid (dielectric constant: 78.4, screening length: 8.12261 Bohr) occupying 0.712606 of unit cell:	Completed after 1 iterations at t[s]:  15957.39
	FillingsUpdate:  mu: -0.163326661  nElectrons: 232.000000  magneticMoment: [ Abs: 0.00000  Tot: -0.00000 ]
	SubspaceRotationAdjust: set factor to 0.446
ElecMinimize: Iter:   5  F: -404.809844035051640  |grad|_K:  5.495e-08  alpha:  4.367e-01  linmin:  1.867e-04  t[s]:  16029.74
	Linear fluid (dielectric constant: 78.4, screening length: 8.12261 Bohr) occupying 0.712607 of unit cell:	Completed after 2 iterations at t[s]:  16092.13
	Linear fluid (dielectric constant: 78.4, screening length: 8.12261 Bohr) occupying 0.712606 of unit cell:	Completed after 0 iterations at t[s]:  16142.53
	FillingsUpdate:  mu: -0.163332093  nElectrons: 232.000000  magneticMoment: [ Abs: 0.00000  Tot: -0.00000 ]
	SubspaceRotationAdjust: set factor to 0.555
ElecMinimize: Iter:   6  F: -404.809844263285413  |grad|_K:  2.587e-08  alpha:  3.645e-01  linmin: -2.831e-04  t[s]:  16214.36
	Linear fluid (dielectric constant: 78.4, screening length: 8.12261 Bohr) occupying 0.712607 of unit cell:	Completed after 0 iterations at t[s]:  16274.58
	Linear fluid (dielectric constant: 78.4, screening length: 8.12261 Bohr) occupying 0.712607 of unit cell:	Completed after 2 iterations at t[s]:  16328.08
	FillingsUpdate:  mu: -0.163351233  nElectrons: 232.000000  magneticMoment: [ Abs: 0.00000  Tot: -0.00000 ]
	SubspaceRotationAdjust: set factor to 0.505
ElecMinimize: Iter:   7  F: -404.809844319483943  |grad|_K:  3.371e-08  alpha:  8.763e-01  linmin:  3.928e-03  t[s]:  16399.96
	Linear fluid (dielectric constant: 78.4, screening length: 8.12261 Bohr) occupying 0.712609 of unit cell:	Completed after 2 iterations at t[s]:  16462.78
	Linear fluid (dielectric constant: 78.4, screening length: 8.12261 Bohr) occupying 0.712608 of unit cell:	Completed after 1 iterations at t[s]:  16515.29
	FillingsUpdate:  mu: -0.163345262  nElectrons: 232.000000  magneticMoment: [ Abs: 0.00000  Tot: -0.00000 ]
	SubspaceRotationAdjust: set factor to 0.643
ElecMinimize: Iter:   8  F: -404.809844351832453  |grad|_K:  2.455e-08  alpha:  2.295e-01  linmin:  6.176e-04  t[s]:  16588.58
ElecMinimize: Converged (|Delta F|<1.000000e-07 for 2 iters).
Setting wave functions to eigenvectors of Hamiltonian
Converging empty states (this may take a while): |deigs|: 1.303e-08

Computing DFT-D3 correction:
# coordination-number C 3.301 3.322 3.335 3.333 3.313 3.290 3.326 3.579 3.331 3.314 3.304 3.333 3.306 3.301 3.326 3.617 3.265 3.300 3.319 3.335 3.328 3.303 3.302 3.327 3.336 3.319 3.300 3.268 3.570 3.326 3.302 3.307 3.325 3.303 3.314 3.330 3.618 3.327 3.289 3.313 3.333 3.335 3.322 3.301 3.001
# coordination-number N 3.178 3.178 3.176 3.183
# coordination-number Ti 7.480
# coordination-number O 2.000 1.051 1.983
# coordination-number H 1.002 0.993
# diagonal-C6 C 24.28 24.06 23.92 23.94 24.16 24.37 24.02 20.54 23.96 24.14 24.25 23.94 24.23 24.27 24.02 20.08 24.59 24.28 24.09 23.92 24.00 24.25 24.26 24.00 23.91 24.09 24.28 24.57 20.65 24.02 24.26 24.21 24.03 24.26 24.15 23.97 20.07 24.01 24.38 24.16 23.95 23.92 24.06 24.27 25.67
# diagonal-C6 N 15.60 15.60 15.60 15.60
# diagonal-C6 Ti 321.59
# diagonal-C6 O 10.41 12.77 10.41
# diagonal-C6 H 3.09 3.09
EvdW_6 =   -0.044040
EvdW_8 =   -0.033561
Completed 3 of 19 configurations.

Computing DFT-D3 correction:
# coordination-number C 3.301 3.322 3.335 3.333 3.313 3.290 3.326 3.579 3.331 3.314 3.304 3.333 3.306 3.301 3.326 3.617 3.265 3.300 3.319 3.335 3.328 3.303 3.302 3.327 3.336 3.319 3.300 3.268 3.570 3.326 3.302 3.307 3.325 3.303 3.314 3.330 3.618 3.327 3.289 3.313 3.333 3.335 3.322 3.301 3.000
# coordination-number N 3.178 3.178 3.176 3.183
# coordination-number Ti 7.479
# coordination-number O 2.000 1.051 1.983
# coordination-number H 1.002 0.993
# diagonal-C6 C 24.28 24.06 23.92 23.94 24.16 24.37 24.02 20.54 23.96 24.14 24.25 23.94 24.23 24.27 24.02 20.08 24.59 24.28 24.09 23.92 24.00 24.25 24.26 24.00 23.91 24.09 24.28 24.57 20.65 24.02 24.26 24.21 24.03 24.26 24.15 23.97 20.07 24.01 24.38 24.16 23.95 23.92 24.06 24.27 25.67
# diagonal-C6 N 15.60 15.60 15.60 15.60
# diagonal-C6 Ti 321.59
# diagonal-C6 O 10.41 12.77 10.41
# diagonal-C6 H 3.09 3.09
EvdW_6 =   -0.044040
EvdW_8 =   -0.033554

-------- Electronic minimization -----------
	Linear fluid (dielectric constant: 78.4, screening length: 8.12261 Bohr) occupying 0.712564 of unit cell:	Completed after 7 iterations at t[s]:  16843.31
	FillingsUpdate:  mu: -0.163187101  nElectrons: 232.000000  magneticMoment: [ Abs: 0.00000  Tot: -0.00000 ]
ElecMinimize: Iter:   0  F: -404.809729543472770  |grad|_K:  7.672e-07  alpha:  1.000e+00
	Linear fluid (dielectric constant: 78.4, screening length: 8.12261 Bohr) occupying 0.712565 of unit cell:	Completed after 8 iterations at t[s]:  16993.68
	Linear fluid (dielectric constant: 78.4, screening length: 8.12261 Bohr) occupying 0.712565 of unit cell:	Completed after 6 iterations at t[s]:  17050.64
	FillingsUpdate:  mu: -0.163326062  nElectrons: 232.000000  magneticMoment: [ Abs: 0.00000  Tot: -0.00000 ]
	SubspaceRotationAdjust: set factor to 0.555
ElecMinimize: Iter:   1  F: -404.809797767458406  |grad|_K:  4.039e-07  alpha:  5.320e-01  linmin:  9.215e-06  t[s]:  17123.09
	Linear fluid (dielectric constant: 78.4, screening length: 8.12261 Bohr) occupying 0.712551 of unit cell:	Completed after 6 iterations at t[s]:  17189.29
	Linear fluid (dielectric constant: 78.4, screening length: 8.12261 Bohr) occupying 0.712552 of unit cell:	Completed after 2 iterations at t[s]:  17242.85
	FillingsUpdate:  mu: -0.163144811  nElectrons: 232.000000  magneticMoment: [ Abs: 0.00000  Tot: +0.00000 ]
	SubspaceRotationAdjust: set factor to 0.484
ElecMinimize: Iter:   2  F: -404.809815350167867  |grad|_K:  2.517e-07  alpha:  4.953e-01  linmin:  3.647e-05  t[s]:  17314.92
	Linear fluid (dielectric constant: 78.4, screening length: 8.12261 Bohr) occupying 0.712544 of unit cell:	Completed after 3 iterations at t[s]:  17378.03
	Linear fluid (dielectric constant: 78.4, screening length: 8.12261 Bohr) occupying 0.712545 of unit cell:	Completed after 1 iterations at t[s]:  17430.84
	FillingsUpdate:  mu: -0.163232935  nElectrons: 232.000000  magneticMoment: [ Abs: 0.00000  Tot: +0.00000 ]
	SubspaceRotationAdjust: set factor to 0.38
ElecMinimize: Iter:   3  F: -404.809821323126869  |grad|_K:  1.629e-07  alpha:  4.347e-01  linmin:  7.132e-05  t[s]:  17502.57
	Linear fluid (dielectric constant: 78.4, screening length: 8.12261 Bohr) occupying 0.712541 of unit cell:	Completed after 2 iterations at t[s]:  17565.40
	Linear fluid (dielectric constant: 78.4, screening length: 8.12261 Bohr) occupying 0.712540 of unit cell:	Completed after 1 iterations at t[s]:  17617.69
	FillingsUpdate:  mu: -0.163210992  nElectrons: 232.000000  magneticMoment: [ Abs: 0.00000  Tot: +0.00000 ]
	SubspaceRotationAdjust: set factor to 0.427
ElecMinimize: Iter:   4  F: -404.809824653685212  |grad|_K:  6.150e-08  alpha:  5.773e-01  linmin: -3.660e-04  t[s]:  17690.09
	Linear fluid (dielectric constant: 78.4, screening length: 8.12261 Bohr) occupying 0.712538 of unit cell:	Completed after 1 iterations at t[s]:  17751.93
	Linear fluid (dielectric constant: 78.4, screening length: 8.12261 Bohr) occupying 0.712537 of unit cell:	Completed after 0 iterations at t[s]:  17803.56
	FillingsUpdate:  mu: -0.163201864  nElectrons: 232.000000  magneticMoment: [ Abs: 0.00000  Tot: +0.00000 ]
	SubspaceRotationAdjust: set factor to 0.422
ElecMinimize: Iter:   5  F: -404.809825311130851  |grad|_K:  3.384e-08  alpha:  7.731e-01  linmin: -8.378e-04  t[s]:  17875.64
	Linear fluid (dielectric constant: 78.4, screening length: 8.12261 Bohr) occupying 0.712535 of unit cell:	Completed after 0 iterations at t[s]:  17935.69
	Linear fluid (dielectric constant: 78.4, screening length: 8.12261 Bohr) occupying 0.712535 of unit cell:	Completed after 1 iterations at t[s]:  17988.35
	FillingsUpdate:  mu: -0.163198608  nElectrons: 232.000000  magneticMoment: [ Abs: 0.00000  Tot: +0.00000 ]
	SubspaceRotationAdjust: set factor to 0.428
ElecMinimize: Iter:   6  F: -404.809825498898647  |grad|_K:  3.211e-08  alpha:  8.893e-01  linmin:  1.860e-03  t[s]:  18060.10
	Linear fluid (dielectric constant: 78.4, screening length: 8.12261 Bohr) occupying 0.712533 of unit cell:	Completed after 0 iterations at t[s]:  18120.16
	Linear fluid (dielectric constant: 78.4, screening length: 8.12261 Bohr) occupying 0.712534 of unit cell:	Completed after 0 iterations at t[s]:  18170.53
	FillingsUpdate:  mu: -0.163197921  nElectrons: 232.000000  magneticMoment: [ Abs: 0.00000  Tot: +0.00000 ]
	SubspaceRotationAdjust: set factor to 0.455
ElecMinimize: Iter:   7  F: -404.809825600685201  |grad|_K:  2.066e-08  alpha:  5.450e-01  linmin:  2.062e-06  t[s]:  18242.63
	Linear fluid (dielectric constant: 78.4, screening length: 8.12261 Bohr) occupying 0.712533 of unit cell:	Completed after 1 iterations at t[s]:  18304.26
	Linear fluid (dielectric constant: 78.4, screening length: 8.12261 Bohr) occupying 0.712534 of unit cell:	Completed after 0 iterations at t[s]:  18354.94
	FillingsUpdate:  mu: -0.163199470  nElectrons: 232.000000  magneticMoment: [ Abs: 0.00000  Tot: +0.00000 ]
	SubspaceRotationAdjust: set factor to 0.447
ElecMinimize: Iter:   8  F: -404.809825620591823  |grad|_K:  1.542e-08  alpha:  3.035e-01  linmin: -6.343e-05  t[s]:  18427.19
	Linear fluid (dielectric constant: 78.4, screening length: 8.12261 Bohr) occupying 0.712533 of unit cell:	Completed after 0 iterations at t[s]:  18486.77
	Linear fluid (dielectric constant: 78.4, screening length: 8.12261 Bohr) occupying 0.712533 of unit cell:	Completed after 0 iterations at t[s]:  18537.05
	FillingsUpdate:  mu: -0.163199392  nElectrons: 232.000000  magneticMoment: [ Abs: 0.00000  Tot: -0.00000 ]
	SubspaceRotationAdjust: set factor to 0.505
ElecMinimize: Iter:   9  F: -404.809825643284171  |grad|_K:  1.288e-08  alpha:  4.329e-01  linmin: -3.030e-05  t[s]:  18608.84
ElecMinimize: Converged (|Delta F|<1.000000e-07 for 2 iters).
Setting wave functions to eigenvectors of Hamiltonian
Converging empty states (this may take a while): |deigs|: 1.058e-08

Computing DFT-D3 correction:
# coordination-number C 3.301 3.322 3.335 3.333 3.313 3.290 3.326 3.579 3.331 3.314 3.304 3.333 3.306 3.301 3.326 3.617 3.265 3.300 3.319 3.335 3.328 3.303 3.302 3.327 3.336 3.319 3.300 3.268 3.570 3.326 3.302 3.307 3.325 3.303 3.314 3.330 3.618 3.327 3.289 3.313 3.333 3.335 3.322 3.301 3.000
# coordination-number N 3.178 3.178 3.176 3.183
# coordination-number Ti 7.479
# coordination-number O 2.000 1.051 1.983
# coordination-number H 1.002 0.993
# diagonal-C6 C 24.28 24.06 23.92 23.94 24.16 24.37 24.02 20.54 23.96 24.14 24.25 23.94 24.23 24.27 24.02 20.08 24.59 24.28 24.09 23.92 24.00 24.25 24.26 24.00 23.91 24.09 24.28 24.57 20.65 24.02 24.26 24.21 24.03 24.26 24.15 23.97 20.07 24.01 24.38 24.16 23.95 23.92 24.06 24.27 25.67
# diagonal-C6 N 15.60 15.60 15.60 15.60
# diagonal-C6 Ti 321.59
# diagonal-C6 O 10.41 12.77 10.41
# diagonal-C6 H 3.09 3.09
EvdW_6 =   -0.044040
EvdW_8 =   -0.033554
Completed 4 of 19 configurations.

Computing DFT-D3 correction:
# coordination-number C 3.301 3.322 3.335 3.333 3.313 3.290 3.326 3.579 3.331 3.314 3.304 3.333 3.306 3.301 3.326 3.617 3.265 3.300 3.319 3.335 3.328 3.303 3.302 3.327 3.336 3.319 3.300 3.268 3.570 3.326 3.302 3.307 3.325 3.303 3.314 3.330 3.618 3.327 3.289 3.313 3.333 3.335 3.322 3.301 3.000
# coordination-number N 3.178 3.178 3.176 3.183
# coordination-number Ti 7.480
# coordination-number O 2.000 1.051 1.983
# coordination-number H 1.002 0.993
[...]
disp C   0.001578994760151  -0.004118760705740  -0.001685414123492
disp N   0.000000000000000   0.000000000000000   0.000000000000000
disp N   0.000000000000000   0.000000000000000   0.000000000000000
disp N   0.000000000000000   0.000000000000000   0.000000000000000
disp N   0.000000000000000   0.000000000000000   0.000000000000000
disp Ti   0.000000000000000   0.000000000000000   0.000000000000000
disp O  -0.001424592961212   0.003694753881508   0.000570007443159
disp O   0.000027259225966  -0.000277509111485   0.001113396435716
disp O  -0.000077769696766   0.000053140005803   0.000058071439287
disp H   0.000413000000259   0.000257630000682  -0.001745338493504
disp H  -0.000189786221391   0.000242612776833  -0.000010417460987

Real mode 11:
Frequency: 0.007206 Eh [ 1581 cm^-1 ]
Degeneracy: 1 of 2
IR intensity: 1.0107 e^2/amu [ 985.3 km/mol ]
Displacements:
disp C   0.000000000000000   0.000000000000000   0.000000000000000
disp C   0.000000000000000   0.000000000000000   0.000000000000000
disp C   0.000000000000000   0.000000000000000   0.000000000000000
disp C   0.000000000000000   0.000000000000000   0.000000000000000
disp C   0.000000000000000   0.000000000000000   0.000000000000000
disp C   0.000000000000000   0.000000000000000   0.000000000000000
disp C   0.000000000000000   0.000000000000000   0.000000000000000
disp C   0.000000000000000   0.000000000000000   0.000000000000000
disp C   0.000000000000000   0.000000000000000   0.000000000000000
disp C   0.000000000000000   0.000000000000000   0.000000000000000
disp C   0.000000000000000   0.000000000000000   0.000000000000000
disp C   0.000000000000000   0.000000000000000   0.000000000000000
disp C   0.000000000000000   0.000000000000000   0.000000000000000
disp C   0.000000000000000   0.000000000000000   0.000000000000000
disp C   0.000000000000000   0.000000000000000   0.000000000000000
disp C   0.000000000000000   0.000000000000000   0.000000000000000
disp C   0.000000000000000   0.000000000000000   0.000000000000000
disp C   0.000000000000000   0.000000000000000   0.000000000000000
disp C   0.000000000000000   0.000000000000000   0.000000000000000
disp C   0.000000000000000   0.000000000000000   0.000000000000000
disp C   0.000000000000000   0.000000000000000   0.000000000000000
disp C   0.000000000000000   0.000000000000000   0.000000000000000
disp C   0.000000000000000   0.000000000000000   0.000000000000000
disp C   0.000000000000000   0.000000000000000   0.000000000000000
disp C   0.000000000000000   0.000000000000000   0.000000000000000
disp C   0.000000000000000   0.000000000000000   0.000000000000000
disp C   0.000000000000000   0.000000000000000   0.000000000000000
disp C   0.000000000000000   0.000000000000000   0.000000000000000
disp C   0.000000000000000   0.000000000000000   0.000000000000000
disp C   0.000000000000000   0.000000000000000   0.000000000000000
disp C   0.000000000000000   0.000000000000000   0.000000000000000
disp C   0.000000000000000   0.000000000000000   0.000000000000000
disp C   0.000000000000000   0.000000000000000   0.000000000000000
disp C   0.000000000000000   0.000000000000000   0.000000000000000
disp C   0.000000000000000   0.000000000000000   0.000000000000000
disp C   0.000000000000000   0.000000000000000   0.000000000000000
disp C   0.000000000000000   0.000000000000000   0.000000000000000
disp C   0.000000000000000   0.000000000000000   0.000000000000000
disp C   0.000000000000000   0.000000000000000   0.000000000000000
disp C   0.000000000000000   0.000000000000000   0.000000000000000
disp C   0.000000000000000   0.000000000000000   0.000000000000000
disp C   0.000000000000000   0.000000000000000   0.000000000000000
disp C   0.000000000000000   0.000000000000000   0.000000000000000
disp C   0.000000000000000   0.000000000000000   0.000000000000000
disp C  -0.000739753854930   0.002318575412913  -0.004282569615129
disp N   0.000000000000000   0.000000000000000   0.000000000000000
disp N   0.000000000000000   0.000000000000000   0.000000000000000
disp N   0.000000000000000   0.000000000000000   0.000000000000000
disp N   0.000000000000000   0.000000000000000   0.000000000000000
disp Ti   0.000000000000000   0.000000000000000   0.000000000000000
disp O   0.000092434403113  -0.000170588289160   0.000018957594304
disp O   0.000391248096877  -0.001416564619150   0.002663232086230
disp O  -0.000692570956877   0.000042604032884  -0.000172917704112
disp H   0.006840321842916   0.003840311961550   0.001462474600904
disp H   0.003599725223187  -0.004783608812743  -0.000138263869429

Real mode 12:
Frequency: 0.007289 Eh [ 1600 cm^-1 ]
Degeneracy: 2 of 2
IR intensity: 0.2507 e^2/amu [ 244.4 km/mol ]
Displacements:
disp C   0.000000000000000   0.000000000000000   0.000000000000000
disp C   0.000000000000000   0.000000000000000   0.000000000000000
disp C   0.000000000000000   0.000000000000000   0.000000000000000
disp C   0.000000000000000   0.000000000000000   0.000000000000000
disp C   0.000000000000000   0.000000000000000   0.000000000000000
disp C   0.000000000000000   0.000000000000000   0.000000000000000
disp C   0.000000000000000   0.000000000000000   0.000000000000000
disp C   0.000000000000000   0.000000000000000   0.000000000000000
disp C   0.000000000000000   0.000000000000000   0.000000000000000
disp C   0.000000000000000   0.000000000000000   0.000000000000000
disp C   0.000000000000000   0.000000000000000   0.000000000000000
disp C   0.000000000000000   0.000000000000000   0.000000000000000
disp C   0.000000000000000   0.000000000000000   0.000000000000000
disp C   0.000000000000000   0.000000000000000   0.000000000000000
disp C   0.000000000000000   0.000000000000000   0.000000000000000
disp C   0.000000000000000   0.000000000000000   0.000000000000000
disp C   0.000000000000000   0.000000000000000   0.000000000000000
disp C   0.000000000000000   0.000000000000000   0.000000000000000
disp C   0.000000000000000   0.000000000000000   0.000000000000000
disp C   0.000000000000000   0.000000000000000   0.000000000000000
disp C   0.000000000000000   0.000000000000000   0.000000000000000
disp C   0.000000000000000   0.000000000000000   0.000000000000000
disp C   0.000000000000000   0.000000000000000   0.000000000000000
disp C   0.000000000000000   0.000000000000000   0.000000000000000
disp C   0.000000000000000   0.000000000000000   0.000000000000000
disp C   0.000000000000000   0.000000000000000   0.000000000000000
disp C   0.000000000000000   0.000000000000000   0.000000000000000
disp C   0.000000000000000   0.000000000000000   0.000000000000000
disp C   0.000000000000000   0.000000000000000   0.000000000000000
disp C   0.000000000000000   0.000000000000000   0.000000000000000
disp C   0.000000000000000   0.000000000000000   0.000000000000000
disp C   0.000000000000000   0.000000000000000   0.000000000000000
disp C   0.000000000000000   0.000000000000000   0.000000000000000
disp C   0.000000000000000   0.000000000000000   0.000000000000000
disp C   0.000000000000000   0.000000000000000   0.000000000000000
disp C   0.000000000000000   0.000000000000000   0.000000000000000
disp C   0.000000000000000   0.000000000000000   0.000000000000000
disp C   0.000000000000000   0.000000000000000   0.000000000000000
disp C   0.000000000000000   0.000000000000000   0.000000000000000
disp C   0.000000000000000   0.000000000000000   0.000000000000000
disp C   0.000000000000000   0.000000000000000   0.000000000000000
disp C   0.000000000000000   0.000000000000000   0.000000000000000
disp C   0.000000000000000   0.000000000000000   0.000000000000000
disp C   0.000000000000000   0.000000000000000   0.000000000000000
disp C   0.000371803402630  -0.001125402327229   0.002135021870444
disp N   0.000000000000000   0.000000000000000   0.000000000000000
disp N   0.000000000000000   0.000000000000000   0.000000000000000
disp N   0.000000000000000   0.000000000000000   0.000000000000000
disp N   0.000000000000000   0.000000000000000   0.000000000000000
disp Ti   0.000000000000000   0.000000000000000   0.000000000000000
disp O  -0.000005947643550   0.000110500974577  -0.000023379844121
disp O  -0.000305425252194   0.000670482814769  -0.001311337470921
disp O  -0.001468415499834   0.000313526536952  -0.000320096744345
disp H   0.014299366333513   0.006226423301791   0.002889294500711
disp H   0.007378380952773  -0.009670548795814  -0.000350241283362

Real mode 13:
Frequency: 0.014886 Eh [ 3267 cm^-1 ]
Degeneracy: 1 of 1
IR intensity: 0.9958 e^2/amu [ 970.8 km/mol ]
Displacements:
disp C   0.000000000000000   0.000000000000000   0.000000000000000
disp C   0.000000000000000   0.000000000000000   0.000000000000000
disp C   0.000000000000000   0.000000000000000   0.000000000000000
disp C   0.000000000000000   0.000000000000000   0.000000000000000
disp C   0.000000000000000   0.000000000000000   0.000000000000000
disp C   0.000000000000000   0.000000000000000   0.000000000000000
disp C   0.000000000000000   0.000000000000000   0.000000000000000
disp C   0.000000000000000   0.000000000000000   0.000000000000000
disp C   0.000000000000000   0.000000000000000   0.000000000000000
disp C   0.000000000000000   0.000000000000000   0.000000000000000
disp C   0.000000000000000   0.000000000000000   0.000000000000000
disp C   0.000000000000000   0.000000000000000   0.000000000000000
disp C   0.000000000000000   0.000000000000000   0.000000000000000
disp C   0.000000000000000   0.000000000000000   0.000000000000000
disp C   0.000000000000000   0.000000000000000   0.000000000000000
disp C   0.000000000000000   0.000000000000000   0.000000000000000
disp C   0.000000000000000   0.000000000000000   0.000000000000000
disp C   0.000000000000000   0.000000000000000   0.000000000000000
disp C   0.000000000000000   0.000000000000000   0.000000000000000
disp C   0.000000000000000   0.000000000000000   0.000000000000000
disp C   0.000000000000000   0.000000000000000   0.000000000000000
disp C   0.000000000000000   0.000000000000000   0.000000000000000
disp C   0.000000000000000   0.000000000000000   0.000000000000000
disp C   0.000000000000000   0.000000000000000   0.000000000000000
disp C   0.000000000000000   0.000000000000000   0.000000000000000
disp C   0.000000000000000   0.000000000000000   0.000000000000000
disp C   0.000000000000000   0.000000000000000   0.000000000000000
disp C   0.000000000000000   0.000000000000000   0.000000000000000
disp C   0.000000000000000   0.000000000000000   0.000000000000000
disp C   0.000000000000000   0.000000000000000   0.000000000000000
disp C   0.000000000000000   0.000000000000000   0.000000000000000
disp C   0.000000000000000   0.000000000000000   0.000000000000000
disp C   0.000000000000000   0.000000000000000   0.000000000000000
disp C   0.000000000000000   0.000000000000000   0.000000000000000
disp C   0.000000000000000   0.000000000000000   0.000000000000000
disp C   0.000000000000000   0.000000000000000   0.000000000000000
disp C   0.000000000000000   0.000000000000000   0.000000000000000
disp C   0.000000000000000   0.000000000000000   0.000000000000000
disp C   0.000000000000000   0.000000000000000   0.000000000000000
disp C   0.000000000000000   0.000000000000000   0.000000000000000
disp C   0.000000000000000   0.000000000000000   0.000000000000000
disp C   0.000000000000000   0.000000000000000   0.000000000000000
disp C   0.000000000000000   0.000000000000000   0.000000000000000
disp C   0.000000000000000   0.000000000000000   0.000000000000000
disp C  -0.000032634227731   0.000100313018932  -0.000162696042423
disp N   0.000000000000000   0.000000000000000   0.000000000000000
disp N   0.000000000000000   0.000000000000000   0.000000000000000
disp N   0.000000000000000   0.000000000000000   0.000000000000000
disp N   0.000000000000000   0.000000000000000   0.000000000000000
disp Ti   0.000000000000000   0.000000000000000   0.000000000000000
disp O   0.000017706365208  -0.000045328570759   0.000024743586168
disp O   0.000033009738561  -0.000088950097566   0.000065627421617
disp O  -0.000604333323182   0.001327991549226   0.000113415133563
disp H   0.009011412215068  -0.020579323562455  -0.001695704354898
disp H   0.000604139700876   0.001256800659269   0.000150968777866

Real mode 14:
Frequency: 0.017539 Eh [ 3849 cm^-1 ]
Degeneracy: 1 of 1
IR intensity: 0.0905 e^2/amu [ 88.3 km/mol ]
Displacements:
disp C   0.000000000000000   0.000000000000000   0.000000000000000
disp C   0.000000000000000   0.000000000000000   0.000000000000000
disp C   0.000000000000000   0.000000000000000   0.000000000000000
disp C   0.000000000000000   0.000000000000000   0.000000000000000
disp C   0.000000000000000   0.000000000000000   0.000000000000000
disp C   0.000000000000000   0.000000000000000   0.000000000000000
disp C   0.000000000000000   0.000000000000000   0.000000000000000
disp C   0.000000000000000   0.000000000000000   0.000000000000000
disp C   0.000000000000000   0.000000000000000   0.000000000000000
disp C   0.000000000000000   0.000000000000000   0.000000000000000
disp C   0.000000000000000   0.000000000000000   0.000000000000000
disp C   0.000000000000000   0.000000000000000   0.000000000000000
disp C   0.000000000000000   0.000000000000000   0.000000000000000
disp C   0.000000000000000   0.000000000000000   0.000000000000000
disp C   0.000000000000000   0.000000000000000   0.000000000000000
disp C   0.000000000000000   0.000000000000000   0.000000000000000
disp C   0.000000000000000   0.000000000000000   0.000000000000000
disp C   0.000000000000000   0.000000000000000   0.000000000000000
disp C   0.000000000000000   0.000000000000000   0.000000000000000
disp C   0.000000000000000   0.000000000000000   0.000000000000000
disp C   0.000000000000000   0.000000000000000   0.000000000000000
disp C   0.000000000000000   0.000000000000000   0.000000000000000
disp C   0.000000000000000   0.000000000000000   0.000000000000000
disp C   0.000000000000000   0.000000000000000   0.000000000000000
disp C   0.000000000000000   0.000000000000000   0.000000000000000
disp C   0.000000000000000   0.000000000000000   0.000000000000000
disp C   0.000000000000000   0.000000000000000   0.000000000000000
disp C   0.000000000000000   0.000000000000000   0.000000000000000
disp C   0.000000000000000   0.000000000000000   0.000000000000000
disp C   0.000000000000000   0.000000000000000   0.000000000000000
disp C   0.000000000000000   0.000000000000000   0.000000000000000
disp C   0.000000000000000   0.000000000000000   0.000000000000000
disp C   0.000000000000000   0.000000000000000   0.000000000000000
disp C   0.000000000000000   0.000000000000000   0.000000000000000
disp C   0.000000000000000   0.000000000000000   0.000000000000000
disp C   0.000000000000000   0.000000000000000   0.000000000000000
disp C   0.000000000000000   0.000000000000000   0.000000000000000
disp C   0.000000000000000   0.000000000000000   0.000000000000000
disp C   0.000000000000000   0.000000000000000   0.000000000000000
disp C   0.000000000000000   0.000000000000000   0.000000000000000
disp C   0.000000000000000   0.000000000000000   0.000000000000000
disp C   0.000000000000000   0.000000000000000   0.000000000000000
disp C   0.000000000000000   0.000000000000000   0.000000000000000
disp C   0.000000000000000   0.000000000000000   0.000000000000000
disp C  -0.000009444477138  -0.000000882381570  -0.000008961886895
disp N   0.000000000000000   0.000000000000000   0.000000000000000
disp N   0.000000000000000   0.000000000000000   0.000000000000000
disp N   0.000000000000000   0.000000000000000   0.000000000000000
disp N   0.000000000000000   0.000000000000000   0.000000000000000
disp Ti   0.000000000000000   0.000000000000000   0.000000000000000
disp O  -0.000000308700911  -0.000001237382224   0.000004491894400
disp O   0.000004571187005  -0.000015211222033  -0.000001016144825
disp O   0.001006770918761   0.000925178983730   0.000273178038322
disp H   0.000827280087341  -0.000530031009472  -0.000047535096500
disp H  -0.017143540158557  -0.014201600188667  -0.004103365087886

Vibrational free energy components at T = 298 K:
	ZPE:          0.033579
	Evib:         0.037195
	TSvib:        0.006599
	Avib:         0.030596


Dumping 'jdft.n_up' ... done
Dumping 'jdft.n_dn' ... done
Dumping 'jdft.tau_up' ... done
Dumping 'jdft.tau_dn' ... done
Dumping 'jdft.eigenvals' ... done
Dumping 'jdft.eigStats' ... 
	eMin: -2.291511 at state 0 ( [ +0.000000 +0.000000 +0.000000 ] spin 1 )
	HOMO: -0.168966 at state 8 ( [ -0.333333 -0.333333 +0.000000 ] spin 1 )
	mu  : -0.163306
	LUMO: -0.157823 at state 13 ( [ +0.333333 +0.333333 +0.000000 ] spin -1 )
	eMax: +0.016318 at state 13 ( [ +0.333333 +0.333333 +0.000000 ] spin -1 )
	HOMO-LUMO gap: +0.011143
	Optical gap  : +0.011143 at state 8 ( [ -0.333333 -0.333333 +0.000000 ] spin 1 )
Dumping 'jdft.kPts' ... done
Dumping 'jdft.dosUp' ... done.
Dumping 'jdft.dosDn' ... done.
End date and time: Thu Nov 10 01:25:16 2022  (Duration: 0-12:16:27.37)
Done!

PROFILER:             augmentDensityGrid     0.815510 +/-     0.957015 s, 2260 calls,   1843.053447 s total
PROFILER:         augmentDensityGridGrad     0.631524 +/-     0.798285 s, 1285 calls,    811.508024 s total
PROFILER:        augmentDensitySpherical     0.000585 +/-     0.000838 s, 2260 calls,      1.322101 s total
PROFILER:    augmentDensitySphericalGrad     0.000730 +/-     0.001847 s, 1745 calls,      1.274643 s total
PROFILER:                 augmentOverlap     1.860418 +/-     2.721441 s, 4750 calls,   8836.983768 s total
PROFILER:        ColumnBundle::randomize     0.006350 +/-     0.000000 s,    1 calls,      0.006350 s total
PROFILER:                     diagouterI    21.096450 +/-     3.415008 s,  455 calls,   9598.884786 s total
PROFILER:              EdensityAndVscloc     8.564306 +/-     5.041438 s,  453 calls,   3879.630525 s total
PROFILER:                     EnlAndGrad     0.001957 +/-     0.003018 s, 2490 calls,      4.874103 s total
PROFILER:            ExCorrCommunication     0.092841 +/-     0.111375 s, 2929 calls,    271.930227 s total
PROFILER:               ExCorrFunctional     0.027517 +/-     0.005589 s,  511 calls,     14.061195 s total
PROFILER:                    ExCorrTotal     0.867590 +/-     0.206996 s,  511 calls,    443.338415 s total
PROFILER:                   Idag_DiagV_I    35.751050 +/-    13.972210 s,  330 calls,  11797.846409 s total
PROFILER:                    initWeights     2.267796 +/-     0.000000 s,    1 calls,      2.267796 s total
PROFILER:                    inv(matrix)     0.003220 +/-     0.003106 s,  385 calls,      1.239556 s total
PROFILER:            matrix::diagonalize     0.012953 +/-     0.008283 s,  755 calls,      9.779841 s total
PROFILER:                    matrix::set     0.000003 +/-     0.000003 s, 47243 calls,      0.141089 s total
PROFILER:            orthoMatrix(matrix)     0.002795 +/-     0.001729 s,  459 calls,      1.282734 s total
PROFILER:     RadialFunctionR::transform     0.026891 +/-     0.196848 s,  151 calls,      4.060547 s total
PROFILER:                    reduceKmesh     0.000000 +/-     0.000000 s,    1 calls,      0.000000 s total
PROFILER:   VanDerWaalsD3::energyAndGrad     0.045813 +/-     0.002336 s,   39 calls,      1.786691 s total
PROFILER:               WavefunctionDrag    38.218805 +/-     1.871356 s,   19 calls,    726.157298 s total
PROFILER:                            Y*M     0.850971 +/-     1.082884 s, 8352 calls,   7107.307329 s total
PROFILER:                          Y1^Y2     0.891943 +/-     1.114584 s, 6207 calls,   5536.287595 s total

MEMUSAGE:                   ColumnBundle     1.365987 GB
MEMUSAGE:        complexScalarFieldTilde     0.074158 GB
MEMUSAGE:                    IndexArrays     0.023178 GB
MEMUSAGE:                         matrix     0.020855 GB
MEMUSAGE:                           misc     0.051230 GB
MEMUSAGE:                    ScalarField     0.395508 GB
MEMUSAGE:               ScalarFieldTilde     0.262436 GB
MEMUSAGE:                          Total     1.683398 GB
