
*************** JDFTx 1.7.0 (git hash 5f12716a) ***************

Start date and time: Tue Nov 22 17:54:22 2022
Executable /home/nisi6161/jdftx_alpine/build/jdftx with command-line: -i in
Running on hosts (process indices):  c3cpu-a5-u1-3.rc.int.colorado.edu (0-17)
Divided in process groups (process indices):  0 (0)  1 (1)  2 (2)  3 (3)  4 (4)  5 (5)  6 (6)  7 (7)  8 (8)  9 (9)  10 (10)  11 (11)  12 (12)  13 (13)  14 (14)  15 (15)  16 (16)  17 (17)
Resource initialization completed at t[s]:      0.00
Run totals: 18 processes, 64 threads, 0 GPUs


Input parsed successfully to the following command list (including defaults):

basis kpoint-dependent
converge-empty-states yes
coords-type Cartesian
core-overlap-check none
coulomb-interaction Periodic
davidson-band-ratio 1.1
density-of-states Etol 1.000000e-06 Esigma 1.000000e-03 \
		Complete \
	Total \
	OrthoOrbital C 1   s \
	OrthoOrbital C 1   p \
	OrthoOrbital C 1   px \
	OrthoOrbital C 1   py \
	OrthoOrbital C 1   pz \
	OrthoOrbital C 2   s \
	OrthoOrbital C 2   p \
	OrthoOrbital C 2   px \
	OrthoOrbital C 2   py \
	OrthoOrbital C 2   pz \
	OrthoOrbital C 3   s \
	OrthoOrbital C 3   p \
	OrthoOrbital C 3   px \
	OrthoOrbital C 3   py \
	OrthoOrbital C 3   pz \
	OrthoOrbital C 4   s \
	OrthoOrbital C 4   p \
	OrthoOrbital C 4   px \
	OrthoOrbital C 4   py \
	OrthoOrbital C 4   pz \
	OrthoOrbital C 5   s \
	OrthoOrbital C 5   p \
	OrthoOrbital C 5   px \
	OrthoOrbital C 5   py \
	OrthoOrbital C 5   pz \
	OrthoOrbital C 6   s \
	OrthoOrbital C 6   p \
	OrthoOrbital C 6   px \
	OrthoOrbital C 6   py \
	OrthoOrbital C 6   pz \
	OrthoOrbital C 7   s \
	OrthoOrbital C 7   p \
	OrthoOrbital C 7   px \
	OrthoOrbital C 7   py \
	OrthoOrbital C 7   pz \
	OrthoOrbital C 8   s \
	OrthoOrbital C 8   p \
	OrthoOrbital C 8   px \
	OrthoOrbital C 8   py \
	OrthoOrbital C 8   pz \
	OrthoOrbital C 9   s \
	OrthoOrbital C 9   p \
	OrthoOrbital C 9   px \
	OrthoOrbital C 9   py \
	OrthoOrbital C 9   pz \
	OrthoOrbital C 10   s \
	OrthoOrbital C 10   p \
	OrthoOrbital C 10   px \
	OrthoOrbital C 10   py \
	OrthoOrbital C 10   pz \
	OrthoOrbital C 11   s \
	OrthoOrbital C 11   p \
	OrthoOrbital C 11   px \
	OrthoOrbital C 11   py \
	OrthoOrbital C 11   pz \
	OrthoOrbital C 12   s \
	OrthoOrbital C 12   p \
	OrthoOrbital C 12   px \
	OrthoOrbital C 12   py \
	OrthoOrbital C 12   pz \
	OrthoOrbital C 13   s \
	OrthoOrbital C 13   p \
	OrthoOrbital C 13   px \
	OrthoOrbital C 13   py \
	OrthoOrbital C 13   pz \
	OrthoOrbital C 14   s \
	OrthoOrbital C 14   p \
	OrthoOrbital C 14   px \
	OrthoOrbital C 14   py \
	OrthoOrbital C 14   pz \
	OrthoOrbital C 15   s \
	OrthoOrbital C 15   p \
	OrthoOrbital C 15   px \
	OrthoOrbital C 15   py \
	OrthoOrbital C 15   pz \
	OrthoOrbital C 16   s \
	OrthoOrbital C 16   p \
	OrthoOrbital C 16   px \
	OrthoOrbital C 16   py \
	OrthoOrbital C 16   pz \
	OrthoOrbital C 17   s \
	OrthoOrbital C 17   p \
	OrthoOrbital C 17   px \
	OrthoOrbital C 17   py \
	OrthoOrbital C 17   pz \
	OrthoOrbital C 18   s \
	OrthoOrbital C 18   p \
	OrthoOrbital C 18   px \
	OrthoOrbital C 18   py \
	OrthoOrbital C 18   pz \
	OrthoOrbital C 19   s \
	OrthoOrbital C 19   p \
	OrthoOrbital C 19   px \
	OrthoOrbital C 19   py \
	OrthoOrbital C 19   pz \
	OrthoOrbital C 20   s \
	OrthoOrbital C 20   p \
	OrthoOrbital C 20   px \
	OrthoOrbital C 20   py \
	OrthoOrbital C 20   pz \
	OrthoOrbital C 21   s \
	OrthoOrbital C 21   p \
	OrthoOrbital C 21   px \
	OrthoOrbital C 21   py \
	OrthoOrbital C 21   pz \
	OrthoOrbital C 22   s \
	OrthoOrbital C 22   p \
	OrthoOrbital C 22   px \
	OrthoOrbital C 22   py \
	OrthoOrbital C 22   pz \
	OrthoOrbital C 23   s \
	OrthoOrbital C 23   p \
	OrthoOrbital C 23   px \
	OrthoOrbital C 23   py \
	OrthoOrbital C 23   pz \
	OrthoOrbital C 24   s \
	OrthoOrbital C 24   p \
	OrthoOrbital C 24   px \
	OrthoOrbital C 24   py \
	OrthoOrbital C 24   pz \
	OrthoOrbital C 25   s \
	OrthoOrbital C 25   p \
	OrthoOrbital C 25   px \
	OrthoOrbital C 25   py \
	OrthoOrbital C 25   pz \
	OrthoOrbital C 26   s \
	OrthoOrbital C 26   p \
	OrthoOrbital C 26   px \
	OrthoOrbital C 26   py \
	OrthoOrbital C 26   pz \
	OrthoOrbital C 27   s \
	OrthoOrbital C 27   p \
	OrthoOrbital C 27   px \
	OrthoOrbital C 27   py \
	OrthoOrbital C 27   pz \
	OrthoOrbital C 28   s \
	OrthoOrbital C 28   p \
	OrthoOrbital C 28   px \
	OrthoOrbital C 28   py \
	OrthoOrbital C 28   pz \
	OrthoOrbital C 29   s \
	OrthoOrbital C 29   p \
	OrthoOrbital C 29   px \
	OrthoOrbital C 29   py \
	OrthoOrbital C 29   pz \
	OrthoOrbital C 30   s \
	OrthoOrbital C 30   p \
	OrthoOrbital C 30   px \
	OrthoOrbital C 30   py \
	OrthoOrbital C 30   pz \
	OrthoOrbital C 31   s \
	OrthoOrbital C 31   p \
	OrthoOrbital C 31   px \
	OrthoOrbital C 31   py \
	OrthoOrbital C 31   pz \
	OrthoOrbital C 32   s \
	OrthoOrbital C 32   p \
	OrthoOrbital C 32   px \
	OrthoOrbital C 32   py \
	OrthoOrbital C 32   pz \
	OrthoOrbital C 33   s \
	OrthoOrbital C 33   p \
	OrthoOrbital C 33   px \
	OrthoOrbital C 33   py \
	OrthoOrbital C 33   pz \
	OrthoOrbital C 34   s \
	OrthoOrbital C 34   p \
	OrthoOrbital C 34   px \
	OrthoOrbital C 34   py \
	OrthoOrbital C 34   pz \
	OrthoOrbital C 35   s \
	OrthoOrbital C 35   p \
	OrthoOrbital C 35   px \
	OrthoOrbital C 35   py \
	OrthoOrbital C 35   pz \
	OrthoOrbital C 36   s \
	OrthoOrbital C 36   p \
	OrthoOrbital C 36   px \
	OrthoOrbital C 36   py \
	OrthoOrbital C 36   pz \
	OrthoOrbital C 37   s \
	OrthoOrbital C 37   p \
	OrthoOrbital C 37   px \
	OrthoOrbital C 37   py \
	OrthoOrbital C 37   pz \
	OrthoOrbital C 38   s \
	OrthoOrbital C 38   p \
	OrthoOrbital C 38   px \
	OrthoOrbital C 38   py \
	OrthoOrbital C 38   pz \
	OrthoOrbital C 39   s \
	OrthoOrbital C 39   p \
	OrthoOrbital C 39   px \
	OrthoOrbital C 39   py \
	OrthoOrbital C 39   pz \
	OrthoOrbital C 40   s \
	OrthoOrbital C 40   p \
	OrthoOrbital C 40   px \
	OrthoOrbital C 40   py \
	OrthoOrbital C 40   pz \
	OrthoOrbital C 41   s \
	OrthoOrbital C 41   p \
	OrthoOrbital C 41   px \
	OrthoOrbital C 41   py \
	OrthoOrbital C 41   pz \
	OrthoOrbital C 42   s \
	OrthoOrbital C 42   p \
	OrthoOrbital C 42   px \
	OrthoOrbital C 42   py \
	OrthoOrbital C 42   pz \
	OrthoOrbital C 43   s \
	OrthoOrbital C 43   p \
	OrthoOrbital C 43   px \
	OrthoOrbital C 43   py \
	OrthoOrbital C 43   pz \
	OrthoOrbital C 44   s \
	OrthoOrbital C 44   p \
	OrthoOrbital C 44   px \
	OrthoOrbital C 44   py \
	OrthoOrbital C 44   pz \
	OrthoOrbital C 45   s \
	OrthoOrbital C 45   p \
	OrthoOrbital C 45   px \
	OrthoOrbital C 45   py \
	OrthoOrbital C 45   pz \
	OrthoOrbital N 1   s \
	OrthoOrbital N 1   p \
	OrthoOrbital N 1   px \
	OrthoOrbital N 1   py \
	OrthoOrbital N 1   pz \
	OrthoOrbital N 2   s \
	OrthoOrbital N 2   p \
	OrthoOrbital N 2   px \
	OrthoOrbital N 2   py \
	OrthoOrbital N 2   pz \
	OrthoOrbital N 3   s \
	OrthoOrbital N 3   p \
	OrthoOrbital N 3   px \
	OrthoOrbital N 3   py \
	OrthoOrbital N 3   pz \
	OrthoOrbital N 4   s \
	OrthoOrbital N 4   p \
	OrthoOrbital N 4   px \
	OrthoOrbital N 4   py \
	OrthoOrbital N 4   pz \
	OrthoOrbital Ti 1   s \
	OrthoOrbital Ti 1   p \
	OrthoOrbital Ti 1   px \
	OrthoOrbital Ti 1   py \
	OrthoOrbital Ti 1   pz \
	OrthoOrbital Ti 1   d \
	OrthoOrbital Ti 1   dxy \
	OrthoOrbital Ti 1   dyz \
	OrthoOrbital Ti 1   dz2 \
	OrthoOrbital Ti 1   dxz \
	OrthoOrbital Ti 1   dx2-y2 \
	OrthoOrbital O 1   s \
	OrthoOrbital O 1   p \
	OrthoOrbital O 1   px \
	OrthoOrbital O 1   py \
	OrthoOrbital O 1   pz \
	OrthoOrbital O 2   s \
	OrthoOrbital O 2   p \
	OrthoOrbital O 2   px \
	OrthoOrbital O 2   py \
	OrthoOrbital O 2   pz \
	OrthoOrbital O 3   s \
	OrthoOrbital O 3   p \
	OrthoOrbital O 3   px \
	OrthoOrbital O 3   py \
	OrthoOrbital O 3   pz \
	OrthoOrbital H 1   s \
	OrthoOrbital H 2   s \
	OrthoOrbital H 3   s \
	OrthoOrbital H 4   s
dump End ElecDensity KEdensity BandEigs EigStats RhoAtom DOS Kpoints
dump Ionic State IonicPositions Lattice EigStats Ecomponents
dump 
dump 
dump 
dump 
dump 
dump 
dump 
dump 
dump-name jdft.$VAR
elec-cutoff 20
elec-eigen-algo Davidson
elec-ex-corr gga-PBE
elec-initial-magnetization 0.000000 no
elec-n-bands 141
elec-smearing Fermi 0.001
electronic-minimize  \
	dirUpdateScheme      FletcherReeves \
	linminMethod         DirUpdateRecommended \
	nIterations          100 \
	history              15 \
	knormThreshold       0 \
	energyDiffThreshold  1e-07 \
	nEnergyDiff          2 \
	alphaTstart          1 \
	alphaTmin            1e-10 \
	updateTestStepSize   yes \
	alphaTreduceFactor   0.1 \
	alphaTincreaseFactor 3 \
	nAlphaAdjustMax      3 \
	wolfeEnergy          0.0001 \
	wolfeGradient        0.9 \
	fdTest               no
exchange-regularization WignerSeitzTruncated
fluid LinearPCM 298.000000 1.013250
fluid-anion F- 0.5 MeanFieldLJ \
	epsBulk 1 \
	pMol 0 \
	epsInf 1 \
	Pvap 0 \
	sigmaBulk 0 \
	Rvdw 2.24877 \
	Res 0 \
	tauNuc 343133
fluid-cation Na+ 0.5 MeanFieldLJ \
	epsBulk 1 \
	pMol 0 \
	epsInf 1 \
	Pvap 0 \
	sigmaBulk 0 \
	Rvdw 2.19208 \
	Res 0 \
	tauNuc 343133
fluid-ex-corr lda-TF lda-PZ
fluid-gummel-loop 10 1.000000e-05
fluid-minimize  \
	dirUpdateScheme      PolakRibiere \
	linminMethod         DirUpdateRecommended \
	nIterations          400 \
	history              15 \
	knormThreshold       1e-11 \
	energyDiffThreshold  0 \
	nEnergyDiff          2 \
	alphaTstart          1 \
	alphaTmin            1e-10 \
	updateTestStepSize   yes \
	alphaTreduceFactor   0.1 \
	alphaTincreaseFactor 3 \
	nAlphaAdjustMax      6 \
	wolfeEnergy          0.0001 \
	wolfeGradient        0.9 \
	fdTest               no
fluid-solvent H2O 55.338 ScalarEOS \
	epsBulk 78.4 \
	pMol 0.92466 \
	epsInf 1.77 \
	Pvap 1.06736e-10 \
	sigmaBulk 4.62e-05 \
	Rvdw 2.61727 \
	Res 1.42 \
	tauNuc 343133 \
	poleEl 15 7 1
forces-output-coords Positions
ion C   0.002461000000000   0.090659000000000   0.035211000000000 0
ion C  21.041053000000002   4.043435000000001   0.055195000000000 0
ion C  18.693049999999999   8.044991000000001  43.242557000000005 0
ion C  -7.046992000000000  12.045087000000002  43.237972000000006 0
ion C  -9.373006000000002  16.055339000000004   0.014058000000000 0
ion C   4.682712000000001   0.178006000000000   0.056017000000000 0
ion C   2.288986000000000   4.209373000000001   0.200839000000000 0
ion C  -0.131572000000000   8.023855000000001   0.205641000000000 0
ion C  -2.427594000000003  12.026528000000004   0.070075000000000 0
ion C  -4.719897000000002  16.054004000000003   0.027554000000000 0
ion C   9.378058000000001   0.064519000000000   0.004196000000000 0
ion C   7.082672000000001   4.155137000000001   0.027684000000000 0
ion C  -0.019167000000001  15.949339000000004   0.097932000000000 0
ion C   2.341992000000001  19.929452999999999   0.025651000000000 0
ion C  11.753337999999998   4.028723000000001  43.231787000000004 0
ion C   9.459151000000002   8.022460000000001   0.013712000000000 0
ion C   4.669438000000001  15.840057000000002   0.136776000000000 0
ion C   6.994318000000000  19.941245000000002   0.021412000000000 0
ion C  16.396037000000000   4.017783000000001  43.242644000000006 0
ion C  14.086559999999999   8.039380000000001  43.239443000000009 0
ion C  11.771976000000002  12.042837000000002   0.027468000000000 0
ion C   9.376505000000002  15.996794000000001   0.009170000000000 0
ion C  -0.013639000000000   2.774595000000000   0.087681000000000 0
ion C  -2.429311000000000   6.696097000000001   0.054892000000000 0
ion C  -4.742977000000000  10.694367000000002  43.248527000000010 0
ion C  -7.046983000000002  14.717903000000003   0.006834000000000 0
ion C  -9.375213000000002  18.744274000000004   0.039104000000000 0
ion C   4.679148000000000   2.895589000000001   0.114846000000000 0
ion C  -0.128425000000000  10.699586000000004   0.219396000000000 0
ion C  -2.400585000000001  14.697889000000004   0.071286000000000 0
ion C  -4.721467000000001  18.738989000000004   0.025391000000000 0
ion C   9.388293000000001   2.743428000000001  43.233993000000005 0
ion C   2.286725999999998  14.518199000000005   0.222813000000000 0
ion C  -0.009969000000000  18.634632000000003   0.031577000000000 0
ion C  14.073209000000004   2.676200000000000  43.243639000000009 0
ion C  11.777767000000001   6.702715000000001  43.252333000000007 0
ion C   9.456739999999996  10.717958000000003   0.053205000000000 0
ion C   7.072538000000000  14.585058000000004   0.084826000000000 0
ion C   4.667830000000002  18.558540000000001   0.054892000000000 0
ion C  18.724167000000001   2.684459000000001   0.012631000000000 0
ion C  16.391851000000003   6.691195000000001  43.226033000000008 0
ion C  14.084496000000001  10.711297000000002  43.247272000000009 0
ion C  11.745595000000000  14.717269000000003   0.014967000000000 0
ion C   9.361956000000001  18.675664000000005   0.012025000000000 0
ion C   4.440935000000001   9.173762000000002   5.548314000000001 1
ion N   2.171711999999999  11.911252000000003   0.445280000000000 0
ion N   7.176168999999998  11.997751000000003   0.180898000000000 0
ion N   2.159894000000000   6.808552000000001   0.405225000000000 0
ion N   7.186338000000001   6.738493000000001   0.048880000000000 0
ion Ti   4.884646000000001   9.336981000000000   1.565143000000000 0
ion O   3.917090000000000  10.939130000000000   7.519591000000002 1
ion O   4.926117000000001   7.016948000000001   6.249845000000001 1
ion O   8.008724000000003  11.930437000000001   9.784708000000002 1
ion H   8.009951000000001  13.643040000000001  10.575952000000001 1
ion H   8.482057000000001  10.662365000000001  11.096455000000004 1
ion H   6.220394999999998  11.520092000000002   8.997659000000002 1
ion H   3.296634999999999  12.545077000000001   6.785099000000001 1
ion-species /projects/musgravc/apps/jdftx-1.6.0/build/pseudopotentials/GBRV_v1.5/$ID_pbe_v1.uspp
ion-species /projects/musgravc/apps/jdftx-1.6.0/build/pseudopotentials/GBRV_v1.5/$ID_pbe_v1.2.uspp
ion-species /projects/musgravc/apps/jdftx-1.6.0/build/pseudopotentials/GBRV_v1.5/$ID_pbe_v1.4.uspp
ion-species /projects/musgravc/apps/jdftx-1.6.0/build/pseudopotentials/GBRV_v1.5/$ID_pbe_v1.5.uspp
ion-width Ecut
ionic-minimize  \
	dirUpdateScheme      L-BFGS \
	linminMethod         DirUpdateRecommended \
	nIterations          0 \
	history              15 \
	knormThreshold       0.0001 \
	energyDiffThreshold  1e-06 \
	nEnergyDiff          2 \
	alphaTstart          1 \
	alphaTmin            1e-10 \
	updateTestStepSize   yes \
	alphaTreduceFactor   0.1 \
	alphaTincreaseFactor 3 \
	nAlphaAdjustMax      3 \
	wolfeEnergy          0.0001 \
	wolfeGradient        0.9 \
	fdTest               no
kpoint   0.000000000000   0.000000000000   0.000000000000  1.00000000000000
kpoint-folding 3 3 1 
latt-move-scale 0 0 0
latt-scale 1 1 1 
lattice  \
	  23.436261999999999  -11.733459000000000    0.000000000000000  \
	   0.017994000000000   19.941849000000001    0.000000000000000  \
	   0.000000000000000    0.000000000000000   43.256312999999999 
lattice-minimize  \
	dirUpdateScheme      L-BFGS \
	linminMethod         DirUpdateRecommended \
	nIterations          0 \
	history              15 \
	knormThreshold       0 \
	energyDiffThreshold  1e-06 \
	nEnergyDiff          2 \
	alphaTstart          1 \
	alphaTmin            1e-10 \
	updateTestStepSize   yes \
	alphaTreduceFactor   0.1 \
	alphaTincreaseFactor 3 \
	nAlphaAdjustMax      3 \
	wolfeEnergy          0.0001 \
	wolfeGradient        0.9 \
	fdTest               no
lcao-params 30 1e-06 0.001
pcm-variant CANDLE
spintype z-spin
subspace-rotation-factor 1 yes
symmetries none
symmetry-threshold 0.0001
target-mu -0.1455 no

van-der-waals D3
vibrations \
	dr 0.01\
	centralDiff no\
	useConstraints yes\
	translationSym yes\
	rotationSym no\
	omegaMin 0.0002\
	T 298\
	omegaResolution 0.0001


Applied RMS atom displacement 0 bohrs to make symmetries exact.
Applied RMS atom displacement 0 bohrs to make symmetries exact.

---------- Initializing the Grid ----------
R = 
[      23.4363     -11.7335            0  ]
[     0.017994      19.9418            0  ]
[            0            0      43.2563  ]
unit cell volume = 20225.5
G =
[   0.267976   0.157673         -0  ]
[ -0.000241801   0.314933          0  ]
[          0         -0   0.145255  ]
Minimum fftbox size, Smin = [  96  96  176  ]
Chosen fftbox size, S = [  96  96  180  ]

---------- Exchange Correlation functional ----------
Initalized PBE GGA exchange.
Initalized PBE GGA correlation.

---------- Setting up pseudopotentials ----------
Width of ionic core gaussian charges (only for fluid interactions / plotting) set to 0.397384

Reading pseudopotential file '/projects/musgravc/apps/jdftx-1.6.0/build/pseudopotentials/GBRV_v1.5/c_pbe_v1.2.uspp':
  Title: C.  Created by USPP 7.3.6 on 3-2-2014
  Reference state energy: -5.406344.  4 valence electrons in orbitals:
    |200>  occupation: 2  eigenvalue: -0.504890
    |210>  occupation: 2  eigenvalue: -0.194356
  lMax: 1  lLocal: 2  QijEcut: 5
  4 projectors sampled on a log grid with 503 points:
    l: 0  eig: -0.504890  rCut: 1.3
    l: 0  eig: 0.000000  rCut: 1.3
    l: 1  eig: -0.194357  rCut: 1.3
    l: 1  eig: 0.000000  rCut: 1.3
  Partial core density with radius 1.1
  Transforming core density to a uniform radial grid of dG=0.02 with 1464 points.
  Transforming local potential to a uniform radial grid of dG=0.02 with 1464 points.
  Transforming nonlocal projectors to a uniform radial grid of dG=0.02 with 432 points.
  Transforming density augmentations to a uniform radial grid of dG=0.02 with 1464 points.
  Transforming atomic orbitals to a uniform radial grid of dG=0.02 with 432 points.
  Core radius for overlap checks: 1.30 bohrs.

Reading pseudopotential file '/projects/musgravc/apps/jdftx-1.6.0/build/pseudopotentials/GBRV_v1.5/n_pbe_v1.2.uspp':
  Title: N.  Created by USPP 7.3.6 on 3-2-2014
  Reference state energy: -9.763716.  5 valence electrons in orbitals:
    |200>  occupation: 2  eigenvalue: -0.681964
    |210>  occupation: 3  eigenvalue: -0.260726
  lMax: 1  lLocal: 2  QijEcut: 6
  4 projectors sampled on a log grid with 491 points:
    l: 0  eig: -0.681964  rCut: 1.15
    l: 0  eig: 0.000000  rCut: 1.15
    l: 1  eig: -0.260729  rCut: 1.2
    l: 1  eig: 0.500000  rCut: 1.2
  Partial core density with radius 0.8
  Transforming core density to a uniform radial grid of dG=0.02 with 1464 points.
  Transforming local potential to a uniform radial grid of dG=0.02 with 1464 points.
  Transforming nonlocal projectors to a uniform radial grid of dG=0.02 with 432 points.
  Transforming density augmentations to a uniform radial grid of dG=0.02 with 1464 points.
  Transforming atomic orbitals to a uniform radial grid of dG=0.02 with 432 points.
  Core radius for overlap checks: 1.20 bohrs.

Reading pseudopotential file '/projects/musgravc/apps/jdftx-1.6.0/build/pseudopotentials/GBRV_v1.5/ti_pbe_v1.4.uspp':
  Title: Ti.  Created by USPP 7.3.6 on 31-3-15
  Reference state energy: -59.020943.  12 valence electrons in orbitals:
    |300>  occupation: 2  eigenvalue: -2.777623
    |310>  occupation: 6  eigenvalue: -1.894596
    |400>  occupation: 2  eigenvalue: -0.438610
    |320>  occupation: 1  eigenvalue: -0.583119
  lMax: 2  lLocal: 3  QijEcut: 6
  6 projectors sampled on a log grid with 597 points:
    l: 0  eig: -2.777624  rCut: 1.8
    l: 0  eig: -0.438611  rCut: 1.8
    l: 1  eig: -1.894596  rCut: 1.8
    l: 1  eig: 0.500000  rCut: 1.8
    l: 2  eig: -0.583118  rCut: 1.8
    l: 2  eig: 0.150000  rCut: 1.8
  Partial core density with radius 0.8
  Transforming core density to a uniform radial grid of dG=0.02 with 1464 points.
  Transforming local potential to a uniform radial grid of dG=0.02 with 1464 points.
  Transforming nonlocal projectors to a uniform radial grid of dG=0.02 with 432 points.
  Transforming density augmentations to a uniform radial grid of dG=0.02 with 1464 points.
  Transforming atomic orbitals to a uniform radial grid of dG=0.02 with 432 points.
  Core radius for overlap checks: 1.80 bohrs.

Reading pseudopotential file '/projects/musgravc/apps/jdftx-1.6.0/build/pseudopotentials/GBRV_v1.5/o_pbe_v1.2.uspp':
  Title: O.  Created by USPP 7.3.6 on 3-2-2014
  Reference state energy: -15.894388.  6 valence electrons in orbitals:
    |200>  occupation: 2  eigenvalue: -0.878823
    |210>  occupation: 4  eigenvalue: -0.332131
  lMax: 2  lLocal: 2  QijEcut: 6
  5 projectors sampled on a log grid with 511 points:
    l: 0  eig: -0.878823  rCut: 1.25
    l: 0  eig: 0.000000  rCut: 1.25
    l: 1  eig: -0.332132  rCut: 1.25
    l: 1  eig: 0.000000  rCut: 1.25
    l: 2  eig: 1.000000  rCut: 1.25
  Partial core density with radius 0.7
  Transforming core density to a uniform radial grid of dG=0.02 with 1464 points.
  Transforming local potential to a uniform radial grid of dG=0.02 with 1464 points.
  Transforming nonlocal projectors to a uniform radial grid of dG=0.02 with 432 points.
  Transforming density augmentations to a uniform radial grid of dG=0.02 with 1464 points.
  Transforming atomic orbitals to a uniform radial grid of dG=0.02 with 432 points.
  Core radius for overlap checks: 1.25 bohrs.

Reading pseudopotential file '/projects/musgravc/apps/jdftx-1.6.0/build/pseudopotentials/GBRV_v1.5/h_pbe_v1.4.uspp':
  Title: H.  Created by USPP 7.3.6 on 2-4-15
  Reference state energy: -0.458849.  1 valence electrons in orbitals:
    |100>  occupation: 1  eigenvalue: -0.238595
  lMax: 0  lLocal: 1  QijEcut: 6
  2 projectors sampled on a log grid with 395 points:
    l: 0  eig: -0.238595  rCut: 1.2
    l: 0  eig: 1.000000  rCut: 1.2
  Transforming local potential to a uniform radial grid of dG=0.02 with 1464 points.
  Transforming nonlocal projectors to a uniform radial grid of dG=0.02 with 432 points.
  Transforming density augmentations to a uniform radial grid of dG=0.02 with 1464 points.
  Transforming atomic orbitals to a uniform radial grid of dG=0.02 with 432 points.
  Core radius for overlap checks: 1.20 bohrs.

Initialized 5 species with 57 total atoms.

Folded 1 k-points by 3x3x1 to 9 k-points.

---------- Setting up k-points, bands, fillings ----------
No reducable k-points. 
Computing the number of bands and number of electrons
Calculating initial fillings.
nElectrons: 234.000000   nBands: 141   nStates: 18

----- Setting up reduced wavefunction bases (one per k-point) -----
average nbasis = 86412.556 , ideal nbasis = 86404.907

----- Initializing Supercell corresponding to k-point mesh -----
Lattice vector linear combinations in supercell:
[   3   0   0  ]
[   0   3   0  ]
[   0   0   1  ]
Supercell lattice vectors:
[  70.3088  -35.2004  0  ]
[  0.053982  59.8255  0  ]
[  0  0  43.2563  ]

Initializing DFT-D3 calculator:
	Parameters set for gga-PBE functional
	s6:  1.000  s_r6:  1.217
	s8:  0.722  s_r8:  1.000
	Per-atom parameters loaded for:
	 C:  sqrtQ[a0]:  3.105  Rcov[a0]:  1.417  CN: [ 0.00 0.99 2.00 3.00 3.98 ]
	 N:  sqrtQ[a0]:  2.712  Rcov[a0]:  1.342  CN: [ 0.00 0.99 2.01 2.99 ]
	Ti:  sqrtQ[a0]:  6.288  Rcov[a0]:  2.305  CN: [ 0.00 1.83 3.87 ]
	 O:  sqrtQ[a0]:  2.594  Rcov[a0]:  1.191  CN: [ 0.00 0.99 1.99 ]
	 H:  sqrtQ[a0]:  2.007  Rcov[a0]:  0.605  CN: [ 0.91 0.00 ]

Initializing DFT-D2 calculator for fluid / solvation:
	 C:  C6:   30.35 Eh-a0^6  R0: 2.744 a0
	 N:  C6:   21.33 Eh-a0^6  R0: 2.640 a0
	Ti:  C6:  187.33 Eh-a0^6  R0: 2.952 a0
	 O:  C6:   12.14 Eh-a0^6  R0: 2.536 a0
	 H:  C6:    2.43 Eh-a0^6  R0: 1.892 a0

---------- Setting up ewald sum ----------
Optimum gaussian width for ewald sums = 5.540693 bohr.
Real space sum over 567 unit cells with max indices [  4  4  3  ]
Reciprocal space sum over 7803 terms with max indices [  8  8  13  ]

Computing DFT-D3 correction:
# coordination-number C 3.301 3.323 3.336 3.332 3.313 3.291 3.322 3.534 3.329 3.313 3.303 3.341 3.301 3.301 3.323 3.747 3.269 3.303 3.320 3.334 3.326 3.306 3.302 3.331 3.336 3.320 3.301 3.270 3.530 3.322 3.302 3.306 3.315 3.301 3.313 3.327 3.743 3.334 3.292 3.314 3.333 3.333 3.322 3.303 2.991
# coordination-number N 3.171 3.185 3.176 3.186
# coordination-number Ti 6.851
# coordination-number O 2.111 1.171 2.941
# coordination-number H 0.988 0.989 1.054 1.002
# diagonal-C6 C 24.27 24.05 23.90 23.95 24.16 24.36 24.06 21.15 23.99 24.15 24.25 23.85 24.28 24.27 24.05 19.00 24.55 24.26 24.08 23.93 24.02 24.23 24.26 23.97 23.91 24.08 24.27 24.55 21.21 24.06 24.26 24.22 24.13 24.27 24.15 24.00 19.02 23.93 24.36 24.14 23.94 23.94 24.06 24.25 25.69
# diagonal-C6 N 15.60 15.60 15.60 15.60
# diagonal-C6 Ti 321.59
# diagonal-C6 O 10.39 12.64 10.37
# diagonal-C6 H 3.10 3.10 3.07 3.09
EvdW_6 =   -0.042965
EvdW_8 =   -0.033233

---------- Allocating electronic variables ----------
Initializing wave functions:  linear combination of atomic orbitals
C pseudo-atom occupations:   s ( 2 )  p ( 2 )
N pseudo-atom occupations:   s ( 2 )  p ( 3 )
Ti pseudo-atom occupations:   s ( 2 0 )  p ( 6 )  d ( 4 )
O pseudo-atom occupations:   s ( 2 )  p ( 4 )
H pseudo-atom occupations:   s ( 1 )
	FillingsUpdate:  mu: -0.145500000  nElectrons: 234.000000  magneticMoment: [ Abs: 0.00473  Tot: +0.00014 ]
LCAOMinimize: Iter:   0  G: -365.1801720560486046  |grad|_K:  1.099e-02  alpha:  1.000e+00
	FillingsUpdate:  mu: -0.145500000  nElectrons: 234.000000  magneticMoment: [ Abs: 0.00458  Tot: +0.00001 ]
LCAOMinimize: Iter:   1  G: -366.8076024207230148  |grad|_K:  2.076e-03  alpha:  3.025e-01  linmin: -3.141e-03  cgtest: -2.408e+00  t[s]:    389.17
	FillingsUpdate:  mu: -0.145500000  nElectrons: 234.000000  magneticMoment: [ Abs: 0.00458  Tot: +0.00001 ]
LCAOMinimize: Iter:   2  G: -366.8545897631455546  |grad|_K:  2.069e-03  alpha:  1.159e-02  linmin: -1.099e-01  cgtest:  9.769e-01  t[s]:    549.79
LCAOMinimize: 	Wrong curvature in test step, increasing alphaT to 3.476061e-02.
	FillingsUpdate:  mu: -0.145500000  nElectrons: 234.000000  magneticMoment: [ Abs: 0.00458  Tot: +0.00000 ]
LCAOMinimize: Iter:   3  G: -366.9001404999293072  |grad|_K:  2.041e-03  alpha: -1.337e+00  linmin: -1.830e-01  cgtest:  9.803e-01  t[s]:    702.92
	FillingsUpdate:  mu: -0.145500000  nElectrons: 234.000000  magneticMoment: [ Abs: 0.00459  Tot: +0.00000 ]
LCAOMinimize: Iter:   4  G: -367.0442488414827267  |grad|_K:  2.049e-03  alpha:  3.694e-02  linmin: -1.686e-01  cgtest:  8.935e-01  t[s]:    856.69
LCAOMinimize: 	Wrong curvature in test step, increasing alphaT to 1.108302e-01.
	FillingsUpdate:  mu: -0.145500000  nElectrons: 234.000000  magneticMoment: [ Abs: 0.00464  Tot: +0.00008 ]
LCAOMinimize: Iter:   5  G: -367.5182170220789999  |grad|_K:  3.738e-03  alpha: -9.051e-03  linmin: -1.162e-01  cgtest:  4.487e-01  t[s]:   1013.76
LCAOMinimize: 	Step increased G by 1.911788e+01, reducing alpha to 1.362611e-02.
	FillingsUpdate:  mu: -0.145500000  nElectrons: 234.000000  magneticMoment: [ Abs: 0.00460  Tot: -0.00000 ]
LCAOMinimize: Iter:   6  G: -368.0417751428665269  |grad|_K:  1.483e-03  alpha:  1.363e-02  linmin: -1.029e-01  cgtest:  9.284e-02  t[s]:   1292.19
LCAOMinimize: 	Predicted alpha/alphaT>3.000000, increasing alphaT to 4.087833e-02.
LCAOMinimize: 	Predicted alpha/alphaT>3.000000, increasing alphaT to 1.226350e-01.
LCAOMinimize: 	Predicted alpha/alphaT>3.000000, increasing alphaT to 3.679049e-01.
LCAOMinimize: 	Step increased G by 2.703605e+01, reducing alpha to 1.040173e-01.
	FillingsUpdate:  mu: -0.145500000  nElectrons: 234.000000  magneticMoment: [ Abs: 0.00463  Tot: -0.00000 ]
LCAOMinimize: Iter:   7  G: -368.3146070714166740  |grad|_K:  1.057e-03  alpha:  1.040e-01  linmin: -1.970e-01  cgtest:  6.968e-01  t[s]:   1655.60
LCAOMinimize: 	Predicted alpha/alphaT>3.000000, increasing alphaT to 3.120518e-01.
	FillingsUpdate:  mu: -0.145500000  nElectrons: 234.000000  magneticMoment: [ Abs: 0.00464  Tot: -0.00000 ]
LCAOMinimize: Iter:   8  G: -368.3494643608628394  |grad|_K:  9.820e-04  alpha:  3.376e-02  linmin: -2.160e-01  cgtest:  9.186e-01  t[s]:   1833.39
LCAOMinimize: 	Wrong curvature in test step, increasing alphaT to 1.012871e-01.
	FillingsUpdate:  mu: -0.145500000  nElectrons: 234.000000  magneticMoment: [ Abs: 0.00465  Tot: -0.00000 ]
LCAOMinimize: Iter:   9  G: -368.3789959782489518  |grad|_K:  8.979e-04  alpha: -8.418e+00  linmin: -2.040e-01  cgtest:  9.114e-01  t[s]:   1977.12
	FillingsUpdate:  mu: -0.145500000  nElectrons: 234.000000  magneticMoment: [ Abs: 0.00466  Tot: -0.00000 ]
LCAOMinimize: Iter:  10  G: -368.4008916109585243  |grad|_K:  8.076e-04  alpha:  3.049e-02  linmin: -1.981e-01  cgtest:  9.176e-01  t[s]:   2137.89
LCAOMinimize: Encountered beta<0, resetting CG.
LCAOMinimize: 	Predicted alpha/alphaT>3.000000, increasing alphaT to 9.146981e-02.
LCAOMinimize: 	Step increased G by 3.069989e-01, reducing alpha to 2.438775e-02.
	FillingsUpdate:  mu: -0.145500000  nElectrons: 234.000000  magneticMoment: [ Abs: 0.00467  Tot: -0.00000 ]
LCAOMinimize: Iter:  11  G: -368.4148321783940787  |grad|_K:  7.242e-04  alpha:  2.439e-02  linmin: -1.964e-01  cgtest:  9.370e-01  t[s]:   2458.82
LCAOMinimize: Encountered beta<0, resetting CG.
LCAOMinimize: 	Predicted alpha/alphaT>3.000000, increasing alphaT to 7.316325e-02.
LCAOMinimize: 	Step increased G by 1.201500e-01, reducing alpha to 2.064428e-02.
	FillingsUpdate:  mu: -0.145500000  nElectrons: 234.000000  magneticMoment: [ Abs: 0.00468  Tot: -0.00000 ]
LCAOMinimize: Iter:  12  G: -368.4241936859181692  |grad|_K:  6.469e-04  alpha:  2.064e-02  linmin: -1.894e-01  cgtest:  9.519e-01  t[s]:   2772.45
LCAOMinimize: Encountered beta<0, resetting CG.
LCAOMinimize: 	Predicted alpha/alphaT>3.000000, increasing alphaT to 6.193284e-02.
LCAOMinimize: 	Step increased G by 2.199495e-02, reducing alpha to 1.743965e-02.
	FillingsUpdate:  mu: -0.145500000  nElectrons: 234.000000  magneticMoment: [ Abs: 0.00469  Tot: -0.00000 ]
LCAOMinimize: Iter:  13  G: -368.4304354059977413  |grad|_K:  5.798e-04  alpha:  1.744e-02  linmin: -1.733e-01  cgtest:  9.647e-01  t[s]:   3091.99
LCAOMinimize: Encountered beta<0, resetting CG.
LCAOMinimize: 	Predicted alpha/alphaT>3.000000, increasing alphaT to 5.231894e-02.
	FillingsUpdate:  mu: -0.145500000  nElectrons: 234.000000  magneticMoment: [ Abs: 0.00473  Tot: -0.00003 ]
LCAOMinimize: Iter:  14  G: -368.4315903186397350  |grad|_K:  1.013e-03  alpha:  1.565e-01  linmin:  1.090e-01  cgtest: -4.529e-01  t[s]:   3293.50
LCAOMinimize: 	Bad step direction: g.d > 0.
LCAOMinimize: 	Undoing step.
LCAOMinimize: 	Step failed: resetting search direction.
	FillingsUpdate:  mu: -0.145500000  nElectrons: 234.000000  magneticMoment: [ Abs: 0.00473  Tot: -0.00003 ]
LCAOMinimize: Iter:  15  G: -368.4315903186397350  |grad|_K:  1.013e-03  alpha:  0.000e+00
	FillingsUpdate:  mu: -0.145500000  nElectrons: 234.000000  magneticMoment: [ Abs: 0.00475  Tot: -0.00001 ]
LCAOMinimize: Iter:  16  G: -368.4511595798518897  |grad|_K:  2.701e-04  alpha:  7.761e-02  linmin:  7.179e-02  cgtest: -1.150e+00  t[s]:   3567.21
	FillingsUpdate:  mu: -0.145500000  nElectrons: 234.000000  magneticMoment: [ Abs: 0.00479  Tot: -0.00001 ]
LCAOMinimize: Iter:  17  G: -368.4518715201039640  |grad|_K:  3.354e-04  alpha:  1.779e-01  linmin:  5.874e-03  cgtest:  9.582e-01  t[s]:   3703.00
	FillingsUpdate:  mu: -0.145500000  nElectrons: 234.000000  magneticMoment: [ Abs: 0.00482  Tot: -0.00002 ]
LCAOMinimize: Iter:  18  G: -368.4556285596078169  |grad|_K:  1.075e-04  alpha:  5.795e-02  linmin: -1.017e-01  cgtest:  8.508e-01  t[s]:   3857.59
LCAOMinimize: Encountered beta<0, resetting CG.
	FillingsUpdate:  mu: -0.145500000  nElectrons: 234.000000  magneticMoment: [ Abs: 0.00484  Tot: -0.00003 ]
LCAOMinimize: Iter:  19  G: -368.4560625277962345  |grad|_K:  5.571e-05  alpha:  8.093e-02  linmin: -2.541e-02  cgtest:  1.687e-01  t[s]:   4019.08
LCAOMinimize: 	Wrong curvature in test step, increasing alphaT to 2.427792e-01.
	FillingsUpdate:  mu: -0.145500000  nElectrons: 234.000000  magneticMoment: [ Abs: 0.00486  Tot: -0.00004 ]
LCAOMinimize: Iter:  20  G: -368.4563038104056432  |grad|_K:  4.754e-05  alpha: -2.203e+00  linmin: -1.210e-01  cgtest:  9.909e-01  t[s]:   4174.33
LCAOMinimize: Encountered beta<0, resetting CG.
	FillingsUpdate:  mu: -0.145500000  nElectrons: 234.000000  magneticMoment: [ Abs: 0.00494  Tot: -0.00005 ]
LCAOMinimize: Iter:  21  G: -368.4568017420812112  |grad|_K:  9.229e-05  alpha:  4.472e-01  linmin:  4.876e-03  cgtest: -1.299e-01  t[s]:   4335.75
	FillingsUpdate:  mu: -0.145500000  nElectrons: 234.000000  magneticMoment: [ Abs: 0.00494  Tot: -0.00005 ]
LCAOMinimize: Iter:  22  G: -368.4568148285810025  |grad|_K:  9.150e-05  alpha:  1.766e-03  linmin: -1.770e-02  cgtest:  9.996e-01  t[s]:   4495.97
LCAOMinimize: Encountered beta<0, resetting CG.
LCAOMinimize: 	Predicted alpha/alphaT>3.000000, increasing alphaT to 5.298023e-03.
LCAOMinimize: 	Predicted alpha/alphaT>3.000000, increasing alphaT to 1.589407e-02.
LCAOMinimize: 	Predicted alpha/alphaT>3.000000, increasing alphaT to 4.768221e-02.
	FillingsUpdate:  mu: -0.145500000  nElectrons: 234.000000  magneticMoment: [ Abs: 0.00496  Tot: -0.00006 ]
LCAOMinimize: Iter:  23  G: -368.4570819891463316  |grad|_K:  1.955e-05  alpha:  6.601e-02  linmin: -4.278e-02  cgtest:  1.467e-01  t[s]:   4731.78
LCAOMinimize: 	Wrong curvature in test step, increasing alphaT to 1.980251e-01.
	FillingsUpdate:  mu: -0.145500000  nElectrons: 234.000000  magneticMoment: [ Abs: 0.00498  Tot: -0.00006 ]
LCAOMinimize: Iter:  24  G: -368.4571184872876870  |grad|_K:  1.784e-05  alpha: -5.505e-02  linmin: -1.628e-01  cgtest:  9.965e-01  t[s]:   4883.20
LCAOMinimize: Encountered beta<0, resetting CG.
LCAOMinimize: 	Wrong curvature in test step, increasing alphaT to 3.000000e+00.
	FillingsUpdate:  mu: -0.145500000  nElectrons: 234.000000  magneticMoment: [ Abs: 0.00517  Tot: -0.00011 ]
LCAOMinimize: Iter:  25  G: -368.4574256331854372  |grad|_K:  2.101e-05  alpha: -6.392e+00  linmin:  1.683e-02  cgtest: -3.015e-01  t[s]:   5039.73
	FillingsUpdate:  mu: -0.145500000  nElectrons: 234.000000  magneticMoment: [ Abs: 0.00519  Tot: -0.00012 ]
LCAOMinimize: Iter:  26  G: -368.4574420727510073  |grad|_K:  1.265e-05  alpha:  4.360e-02  linmin: -3.654e-03  cgtest:  8.931e-01  t[s]:   5199.68
LCAOMinimize: Encountered beta<0, resetting CG.
LCAOMinimize: 	Step increased G by 6.778464e-08, reducing alpha to 1.964827e-03.
	FillingsUpdate:  mu: -0.145500000  nElectrons: 234.000000  magneticMoment: [ Abs: 0.00519  Tot: -0.00012 ]
LCAOMinimize: Iter:  27  G: -368.4574420837452635  |grad|_K:  1.246e-05  alpha:  1.965e-03  linmin: -1.166e-01  cgtest:  9.999e-01  t[s]:   5458.32
LCAOMinimize: Encountered beta<0, resetting CG.
	FillingsUpdate:  mu: -0.145500000  nElectrons: 234.000000  magneticMoment: [ Abs: 0.00519  Tot: -0.00012 ]
LCAOMinimize: Iter:  28  G: -368.4574420864519766  |grad|_K:  1.238e-05  alpha:  9.986e-04  linmin: -1.172e-01  cgtest:  1.000e+00  t[s]:   5606.05
LCAOMinimize: Encountered beta<0, resetting CG.
LCAOMinimize: Converged (|Delta G|<1.000000e-06 for 2 iters).
----- createFluidSolver() ----- (Fluid-side solver setup)
   Initializing fluid molecule 'H2O'
     Initializing site 'O'
       Electron density: proportional to exp(-r/0.36935)*erfc((r-0.51523)/0.36823) with norm 6.826
       Charge density: gaussian nuclear width 0.478731 with net site charge 0.826
       Polarizability: cuspless exponential with width 0.32 and norm 3.73
       Hard sphere radius: 2.57003 bohrs
       Positions in reference frame:
         [ +0.000000 +0.000000 +0.000000 ]
     Initializing site 'H'
       Electron density: proportional to exp(-r/0.34641)*erfc((r-0)/0.390882) with norm 0.587
       Charge density: gaussian nuclear width 0.377945 with net site charge -0.413
       Polarizability: cuspless exponential with width 0.39 and norm 3.3
       Positions in reference frame:
         [ +0.000000 -1.441945 +1.122523 ]
         [ +0.000000 +1.441945 +1.122523 ]
     Net charge: 0   dipole magnitude: 0.927204
     Initializing spherical shell mfKernel with radius 2.61727 Bohr
     deltaS corrections:
       site 'O': -7.54299
       site 'H': -6.83917
   Initializing fluid molecule 'Na+'
     Initializing site 'Na'
       Electron density: proportional to exp(-r/0.19682)*erfc((r-0.71491)/0.41314) with norm 8.1383
       Charge density: gaussian nuclear width 0.365347 with net site charge -1
       Hard sphere radius: 1.86327 bohrs
       Positions in reference frame:
         [ +0.000000 +0.000000 +0.000000 ]
     Net charge: -1   dipole magnitude: 0
     Initializing gaussian mfKernel with width: 1.55004 Bohr
     deltaS corrections:
       site 'Na': -22.3555
   Initializing fluid molecule 'F-'
     Initializing site 'F'
       Electron density: proportional to exp(-r/0.38886)*erfc((r-0)/0.438782) with norm 8
       Charge density: gaussian nuclear width 0.374796 with net site charge 1
       Hard sphere radius: 2.39995 bohrs
       Positions in reference frame:
         [ +0.000000 +0.000000 +0.000000 ]
     Net charge: 1   dipole magnitude: 0
     Initializing gaussian mfKernel with width: 1.59012 Bohr
     deltaS corrections:
       site 'F': -9.04335

Correction to mu due to finite nuclear width = -0.0114793
   Cavity determined by nc: 0.00142 and sigma: 0.707107
   Nonlocal vdW cavity from gaussian model electron density with norm = 8 and sigma = 0.993594 bohr
   Charge asymmetry in cavity with sensitivity pCavity = 36.5 e-bohr/Eh
   Electrostatic cavity expanded by eta = 1.46 bohrs
   Weighted density cavitation model constrained by Nbulk: 0.0049383 bohr^-3, Pvap: 3.14029 kPa, Rvdw: 2.61727 bohr and sigmaBulk: 4.62e-05 Eh/bohr^2 at T: 298 K.
   Weighted density dispersion model using vdW pair potentials with single solvent site with sqrtC6eff: 0.77 SI.
WARNING: Vibrations: switching off translationSym and rotationSym since useConstraints is on.

---- Citations for features of the code used in this run ----

   Software package:
      R. Sundararaman, K. Letchworth-Weaver, K.A. Schwarz, D. Gunceler, Y. Ozhabes and T.A. Arias, 'JDFTx: software for joint density-functional theory', SoftwareX 6, 278 (2017)

   gga-PBE exchange-correlation functional:
      J.P. Perdew, K. Burke and M. Ernzerhof, Phys. Rev. Lett. 77, 3865 (1996)

   Pseudopotentials:
      KF Garrity, JW Bennett, KM Rabe and D Vanderbilt, Comput. Mater. Sci. 81, 446 (2014)

   DFT-D3 dispersion correction:
      S. Grimme, J. Antony, S. Ehrlich and H. Krieg, J. Chem. Phys. 132, 154104 (2010)

   DFT-D2 dispersion correction:
      S. Grimme, J. Comput. Chem. 27, 1787 (2006)

   Charge-asymmetric nonlocally-determined local-electric (CANDLE) solvation model:
      R. Sundararaman and W.A. Goddard III, J. Chem. Phys. 142, 064107 (2015)

   Total energy minimization with Auxiliary Hamiltonian:
      C. Freysoldt, S. Boeck, and J. Neugebauer, Phys. Rev. B 79, 241103(R) (2009)

   Grand-canonical (fixed-potential) DFT:
      R. Sundararaman, W. A. Goddard III and T. A. Arias, J. Chem. Phys. 146, 114104 (2017)

   Linear-tetrahedron sampling for density of states:
      G. Lehmann and M. Taut, Phys. status solidi (b) 54, 469 (1972)

This list may not be complete. Please suggest additional citations or
report any other bugs at https://github.com/shankar1729/jdftx/issues

Initialization completed successfully at t[s]:   5627.28

------ Vibrations::calculate() -------
WARNING: Vibrations module is experimental. Please report bugs!
Compare results with and without symmetries and report discrepancies.
Degrees of freedom: 24 total, 24 symmetry-independent.

Computing DFT-D3 correction:
# coordination-number C 3.301 3.323 3.336 3.332 3.313 3.291 3.322 3.534 3.329 3.313 3.303 3.341 3.301 3.301 3.323 3.747 3.269 3.303 3.320 3.334 3.326 3.306 3.302 3.331 3.336 3.320 3.301 3.270 3.530 3.322 3.302 3.306 3.315 3.301 3.313 3.327 3.743 3.334 3.292 3.314 3.333 3.333 3.322 3.303 2.991
# coordination-number N 3.171 3.185 3.176 3.186
# coordination-number Ti 6.851
# coordination-number O 2.111 1.171 2.941
# coordination-number H 0.988 0.989 1.054 1.002
# diagonal-C6 C 24.27 24.05 23.90 23.95 24.16 24.36 24.06 21.15 23.99 24.15 24.25 23.85 24.28 24.27 24.05 19.00 24.55 24.26 24.08 23.93 24.02 24.23 24.26 23.97 23.91 24.08 24.27 24.55 21.21 24.06 24.26 24.22 24.13 24.27 24.15 24.00 19.02 23.93 24.36 24.14 23.94 23.94 24.06 24.25 25.69
# diagonal-C6 N 15.60 15.60 15.60 15.60
# diagonal-C6 Ti 321.59
# diagonal-C6 O 10.39 12.64 10.37
# diagonal-C6 H 3.10 3.10 3.07 3.09
EvdW_6 =   -0.042965
EvdW_8 =   -0.033233
Fluid solver invoked on fresh (random / LCAO) wavefunctions
Running a vacuum solve first:

-------- Initial electronic minimization -----------
	FillingsUpdate:  mu: -0.131885721  nElectrons: 234.000000  magneticMoment: [ Abs: 0.00519  Tot: -0.00012 ]
ElecMinimize: Iter:   0  G: -368.456608010553680  |grad|_K:  1.423e-04  alpha:  1.000e+00
	FillingsUpdate:  mu: -0.077918097  nElectrons: 234.000000  magneticMoment: [ Abs: 0.00325  Tot: -0.00017 ]
	SubspaceRotationAdjust: set factor to 1
ElecMinimize: Iter:   1  G: -371.458029169835129  |grad|_K:  5.325e-05  alpha:  6.833e-01  linmin:  2.498e-05  t[s]:   5883.33
	FillingsUpdate:  mu: -0.030447045  nElectrons: 234.000000  magneticMoment: [ Abs: 0.00387  Tot: -0.00110 ]
	SubspaceRotationAdjust: set factor to 0.634
ElecMinimize: Iter:   2  G: -371.512282980111024  |grad|_K:  7.582e-05  alpha:  1.096e-01  linmin:  3.312e-03  t[s]:   6044.53
	FillingsUpdate:  mu: -0.029643128  nElectrons: 234.000000  magneticMoment: [ Abs: 0.00448  Tot: -0.00310 ]
	SubspaceRotationAdjust: set factor to 0.362
ElecMinimize: Iter:   3  G: -371.625602869402087  |grad|_K:  7.970e-05  alpha:  1.456e-01  linmin: -4.969e-03  t[s]:   6205.38
ElecMinimize: 	Step increased G by 3.077447e-01, reducing alpha to 4.323250e-03.
	FillingsUpdate:  mu: -0.040864730  nElectrons: 234.000000  magneticMoment: [ Abs: 0.00517  Tot: -0.00394 ]
	SubspaceRotationAdjust: set factor to 0.25
ElecMinimize: Iter:   4  G: -371.645747266087085  |grad|_K:  4.946e-05  alpha:  4.323e-03  linmin: -7.679e-03  t[s]:   6473.28
ElecMinimize: 	Predicted alpha/alphaT>3.000000, increasing alphaT to 1.296975e-02.
	FillingsUpdate:  mu: -0.061427078  nElectrons: 234.000000  magneticMoment: [ Abs: 0.00603  Tot: -0.00496 ]
	SubspaceRotationAdjust: set factor to 0.213
ElecMinimize: Iter:   5  G: -371.660382488025107  |grad|_K:  3.580e-05  alpha:  1.133e-02  linmin:  9.648e-04  t[s]:   6669.16
	FillingsUpdate:  mu: -0.066833740  nElectrons: 234.000000  magneticMoment: [ Abs: 0.00620  Tot: -0.00517 ]
	SubspaceRotationAdjust: set factor to 0.161
ElecMinimize: Iter:   6  G: -371.662037912673554  |grad|_K:  3.811e-05  alpha:  7.098e-03  linmin:  6.915e-06  t[s]:   6824.76
	FillingsUpdate:  mu: -0.073459813  nElectrons: 234.000000  magneticMoment: [ Abs: 0.00633  Tot: -0.00537 ]
	SubspaceRotationAdjust: set factor to 0.106
	SubspaceRotationAdjust: resetting CG because factor has changed by 0.105787
ElecMinimize: 	State modified externally: resetting search direction.
ElecMinimize: Iter:   7  G: -371.665872254842952  |grad|_K:  3.623e-05  alpha:  1.169e-02
ElecMinimize: 	Predicted alpha/alphaT>3.000000, increasing alphaT to 3.507451e-02.
ElecMinimize: 	Predicted alpha/alphaT>3.000000, increasing alphaT to 1.052235e-01.
	FillingsUpdate:  mu: -0.039286845  nElectrons: 234.000000  magneticMoment: [ Abs: 0.00497  Tot: -0.00391 ]
	SubspaceRotationAdjust: set factor to 0.133
ElecMinimize: Iter:   8  G: -371.727045064106562  |grad|_K:  1.969e-05  alpha:  1.922e-01  linmin: -2.097e-02  t[s]:   7292.38
	FillingsUpdate:  mu: -0.058653312  nElectrons: 234.000000  magneticMoment: [ Abs: 0.00359  Tot: -0.00217 ]
	SubspaceRotationAdjust: set factor to 0.107
ElecMinimize: Iter:   9  G: -371.772866125155190  |grad|_K:  1.565e-05  alpha:  4.859e-01  linmin:  4.640e-03  t[s]:   7448.00
	FillingsUpdate:  mu: -0.070580730  nElectrons: 234.000000  magneticMoment: [ Abs: 0.00324  Tot: -0.00168 ]
	SubspaceRotationAdjust: set factor to 0.123
ElecMinimize: Iter:  10  G: -371.791840666963026  |grad|_K:  1.108e-05  alpha:  4.617e-01  linmin: -1.424e-04  t[s]:   7606.20
	FillingsUpdate:  mu: -0.052483479  nElectrons: 234.000000  magneticMoment: [ Abs: 0.00374  Tot: -0.00248 ]
	SubspaceRotationAdjust: set factor to 0.156
ElecMinimize: Iter:  11  G: -371.802732128988225  |grad|_K:  8.780e-06  alpha:  4.020e-01  linmin:  3.242e-05  t[s]:   7760.33
	FillingsUpdate:  mu: -0.041623099  nElectrons: 234.000000  magneticMoment: [ Abs: 0.00500  Tot: -0.00445 ]
	SubspaceRotationAdjust: set factor to 0.131
ElecMinimize: Iter:  12  G: -371.809339556262955  |grad|_K:  5.570e-06  alpha:  3.895e-01  linmin:  9.103e-04  t[s]:   7919.88
	FillingsUpdate:  mu: -0.045056212  nElectrons: 234.000000  magneticMoment: [ Abs: 0.00581  Tot: -0.00530 ]
	SubspaceRotationAdjust: set factor to 0.161
ElecMinimize: Iter:  13  G: -371.811729075352105  |grad|_K:  4.357e-06  alpha:  3.795e-01  linmin:  7.276e-06  t[s]:   8081.55
	FillingsUpdate:  mu: -0.045276933  nElectrons: 234.000000  magneticMoment: [ Abs: 0.00638  Tot: -0.00570 ]
	SubspaceRotationAdjust: set factor to 0.145
ElecMinimize: Iter:  14  G: -371.813269505552853  |grad|_K:  3.376e-06  alpha:  3.702e-01  linmin: -5.966e-05  t[s]:   8240.99
	FillingsUpdate:  mu: -0.046422810  nElectrons: 234.000000  magneticMoment: [ Abs: 0.00828  Tot: -0.00761 ]
	SubspaceRotationAdjust: set factor to 0.179
ElecMinimize: Iter:  15  G: -371.814456033259262  |grad|_K:  2.833e-06  alpha:  4.700e-01  linmin:  1.301e-05  t[s]:   8403.02
	FillingsUpdate:  mu: -0.049376894  nElectrons: 234.000000  magneticMoment: [ Abs: 0.01139  Tot: -0.01079 ]
	SubspaceRotationAdjust: set factor to 0.162
ElecMinimize: Iter:  16  G: -371.815215976453430  |grad|_K:  2.815e-06  alpha:  4.315e-01  linmin:  5.173e-05  t[s]:   8564.56
	FillingsUpdate:  mu: -0.046462356  nElectrons: 234.000000  magneticMoment: [ Abs: 0.01516  Tot: -0.01442 ]
	SubspaceRotationAdjust: set factor to 0.18
ElecMinimize: Iter:  17  G: -371.815872419033724  |grad|_K:  1.907e-06  alpha:  3.830e-01  linmin:  2.619e-06  t[s]:   8718.48
	FillingsUpdate:  mu: -0.047255641  nElectrons: 234.000000  magneticMoment: [ Abs: 0.02065  Tot: -0.01972 ]
	SubspaceRotationAdjust: set factor to 0.166
ElecMinimize: Iter:  18  G: -371.816292901856912  |grad|_K:  1.998e-06  alpha:  5.272e-01  linmin: -5.268e-07  t[s]:   8875.30
	FillingsUpdate:  mu: -0.047535407  nElectrons: 234.000000  magneticMoment: [ Abs: 0.02967  Tot: -0.02873 ]
	SubspaceRotationAdjust: set factor to 0.142
ElecMinimize: Iter:  19  G: -371.816576365555818  |grad|_K:  1.407e-06  alpha:  3.160e-01  linmin: -1.630e-05  t[s]:   9021.37
	FillingsUpdate:  mu: -0.048009117  nElectrons: 234.000000  magneticMoment: [ Abs: 0.04372  Tot: -0.04264 ]
	SubspaceRotationAdjust: set factor to 0.169
ElecMinimize: Iter:  20  G: -371.816782299801730  |grad|_K:  1.180e-06  alpha:  4.723e-01  linmin:  2.013e-05  t[s]:   9163.99
	FillingsUpdate:  mu: -0.047750517  nElectrons: 234.000000  magneticMoment: [ Abs: 0.05746  Tot: -0.05610 ]
	SubspaceRotationAdjust: set factor to 0.148
ElecMinimize: Iter:  21  G: -371.816898343478556  |grad|_K:  9.687e-07  alpha:  3.831e-01  linmin: -1.344e-05  t[s]:   9324.34
	FillingsUpdate:  mu: -0.048361557  nElectrons: 234.000000  magneticMoment: [ Abs: 0.08172  Tot: -0.08006 ]
	SubspaceRotationAdjust: set factor to 0.174
ElecMinimize: Iter:  22  G: -371.816985254203189  |grad|_K:  7.938e-07  alpha:  4.207e-01  linmin:  1.196e-05  t[s]:   9486.23
	FillingsUpdate:  mu: -0.048975482  nElectrons: 234.000000  magneticMoment: [ Abs: 0.13924  Tot: -0.13702 ]
	SubspaceRotationAdjust: set factor to 0.192
ElecMinimize: Iter:  23  G: -371.817080340839709  |grad|_K:  1.091e-06  alpha:  7.085e-01  linmin:  2.575e-04  t[s]:   9644.20
	FillingsUpdate:  mu: -0.049052337  nElectrons: 234.000000  magneticMoment: [ Abs: 0.22574  Tot: -0.22248 ]
	SubspaceRotationAdjust: set factor to 0.223
ElecMinimize: Iter:  24  G: -371.817191307821531  |grad|_K:  1.407e-06  alpha:  4.243e-01  linmin: -6.905e-05  t[s]:   9798.49
	FillingsUpdate:  mu: -0.049478165  nElectrons: 234.000000  magneticMoment: [ Abs: 0.31606  Tot: -0.31140 ]
	SubspaceRotationAdjust: set factor to 0.257
ElecMinimize: Iter:  25  G: -371.817321894198983  |grad|_K:  1.759e-06  alpha:  2.529e-01  linmin: -9.098e-05  t[s]:   9957.78
	FillingsUpdate:  mu: -0.049974260  nElectrons: 234.000000  magneticMoment: [ Abs: 0.36447  Tot: -0.35866 ]
	SubspaceRotationAdjust: set factor to 0.253
ElecMinimize: Iter:  26  G: -371.817396077425940  |grad|_K:  1.862e-06  alpha:  9.983e-02  linmin: -7.113e-05  t[s]:  10119.67
	FillingsUpdate:  mu: -0.050497883  nElectrons: 234.000000  magneticMoment: [ Abs: 0.39571  Tot: -0.38859 ]
	SubspaceRotationAdjust: set factor to 0.226
ElecMinimize: Iter:  27  G: -371.817454412667814  |grad|_K:  1.761e-06  alpha:  7.647e-02  linmin: -5.059e-05  t[s]:  10280.48
	FillingsUpdate:  mu: -0.050597935  nElectrons: 234.000000  magneticMoment: [ Abs: 0.41269  Tot: -0.40391 ]
	SubspaceRotationAdjust: set factor to 0.229
ElecMinimize: Iter:  28  G: -371.817510767810347  |grad|_K:  1.392e-06  alpha:  8.051e-02  linmin: -2.720e-04  t[s]:  10442.13
	FillingsUpdate:  mu: -0.050474973  nElectrons: 234.000000  magneticMoment: [ Abs: 0.41707  Tot: -0.40644 ]
	SubspaceRotationAdjust: set factor to 0.317
ElecMinimize: Iter:  29  G: -371.817561768499218  |grad|_K:  1.007e-06  alpha:  1.066e-01  linmin: -2.700e-04  t[s]:  10600.29
	FillingsUpdate:  mu: -0.050533840  nElectrons: 234.000000  magneticMoment: [ Abs: 0.41945  Tot: -0.40692 ]
	SubspaceRotationAdjust: set factor to 0.342
ElecMinimize: Iter:  30  G: -371.817603711884772  |grad|_K:  1.107e-06  alpha:  1.691e-01  linmin: -1.475e-04  t[s]:  10752.96
	FillingsUpdate:  mu: -0.051052859  nElectrons: 234.000000  magneticMoment: [ Abs: 0.44227  Tot: -0.42685 ]
	SubspaceRotationAdjust: set factor to 0.429
ElecMinimize: Iter:  31  G: -371.817663995038970  |grad|_K:  1.148e-06  alpha:  2.113e-01  linmin: -3.675e-05  t[s]:  10891.09
	FillingsUpdate:  mu: -0.051432477  nElectrons: 234.000000  magneticMoment: [ Abs: 0.47928  Tot: -0.46152 ]
	SubspaceRotationAdjust: set factor to 0.464
ElecMinimize: Iter:  32  G: -371.817712404294866  |grad|_K:  1.214e-06  alpha:  1.638e-01  linmin:  1.920e-06  t[s]:  11044.36
	FillingsUpdate:  mu: -0.050893875  nElectrons: 234.000000  magneticMoment: [ Abs: 0.52585  Tot: -0.50444 ]
	SubspaceRotationAdjust: set factor to 0.572
ElecMinimize: Iter:  33  G: -371.817767456688728  |grad|_K:  1.153e-06  alpha:  1.704e-01  linmin:  7.706e-06  t[s]:  11205.40
	FillingsUpdate:  mu: -0.050210823  nElectrons: 234.000000  magneticMoment: [ Abs: 0.56026  Tot: -0.53492 ]
	SubspaceRotationAdjust: set factor to 0.586
ElecMinimize: Iter:  34  G: -371.817806753472325  |grad|_K:  1.342e-06  alpha:  1.353e-01  linmin: -4.882e-08  t[s]:  11368.56
	FillingsUpdate:  mu: -0.049810714  nElectrons: 234.000000  magneticMoment: [ Abs: 0.66641  Tot: -0.63178 ]
	SubspaceRotationAdjust: set factor to 0.583
ElecMinimize: Iter:  35  G: -371.817889704949039  |grad|_K:  1.728e-06  alpha:  2.137e-01  linmin:  4.578e-05  t[s]:  11526.61
	FillingsUpdate:  mu: -0.050104541  nElectrons: 234.000000  magneticMoment: [ Abs: 0.77628  Tot: -0.73295 ]
	SubspaceRotationAdjust: set factor to 0.586
ElecMinimize: Iter:  36  G: -371.817961352195994  |grad|_K:  1.965e-06  alpha:  1.161e-01  linmin:  7.771e-06  t[s]:  11680.73
	FillingsUpdate:  mu: -0.049827016  nElectrons: 234.000000  magneticMoment: [ Abs: 0.93935  Tot: -0.87858 ]
	SubspaceRotationAdjust: set factor to 0.761
ElecMinimize: Iter:  37  G: -371.818087504903929  |grad|_K:  2.241e-06  alpha:  1.543e-01  linmin:  7.074e-05  t[s]:  11840.01
	FillingsUpdate:  mu: -0.049865039  nElectrons: 234.000000  magneticMoment: [ Abs: 1.02228  Tot: -0.95065 ]
	SubspaceRotationAdjust: set factor to 0.81
	SubspaceRotationAdjust: resetting CG because factor has changed by 7.65834
ElecMinimize: 	State modified externally: resetting search direction.
ElecMinimize: Iter:  38  G: -371.818161164532114  |grad|_K:  2.669e-06  alpha:  6.757e-02
ElecMinimize: 	Predicted alpha/alphaT>3.000000, increasing alphaT to 2.026993e-01.
	FillingsUpdate:  mu: -0.051925354  nElectrons: 234.000000  magneticMoment: [ Abs: 1.16049  Tot: -1.09450 ]
	SubspaceRotationAdjust: set factor to 0.437
ElecMinimize: Iter:  39  G: -371.818700172940225  |grad|_K:  5.161e-06  alpha:  3.346e-01  linmin: -4.602e-04  t[s]:  12295.09
	FillingsUpdate:  mu: -0.049259072  nElectrons: 234.000000  magneticMoment: [ Abs: 1.22171  Tot: -1.13593 ]
	SubspaceRotationAdjust: set factor to 0.288
ElecMinimize: Iter:  40  G: -371.819492178585563  |grad|_K:  1.948e-06  alpha:  1.493e-01  linmin:  2.702e-04  t[s]:  12456.28
ElecMinimize: 	Predicted alpha/alphaT>3.000000, increasing alphaT to 4.480068e-01.
	FillingsUpdate:  mu: -0.049370202  nElectrons: 234.000000  magneticMoment: [ Abs: 1.28483  Tot: -1.17683 ]
	SubspaceRotationAdjust: set factor to 0.248
ElecMinimize: Iter:  41  G: -371.819940698605478  |grad|_K:  1.207e-06  alpha:  5.792e-01  linmin: -9.559e-05  t[s]:  12638.22
	FillingsUpdate:  mu: -0.048914682  nElectrons: 234.000000  magneticMoment: [ Abs: 1.30416  Tot: -1.18025 ]
	SubspaceRotationAdjust: set factor to 0.226
ElecMinimize: Iter:  42  G: -371.820078948585149  |grad|_K:  7.098e-07  alpha:  4.286e-01  linmin: -5.362e-05  t[s]:  12779.76
	FillingsUpdate:  mu: -0.048626272  nElectrons: 234.000000  magneticMoment: [ Abs: 1.32981  Tot: -1.19889 ]
	SubspaceRotationAdjust: set factor to 0.213
ElecMinimize: Iter:  43  G: -371.820135826403146  |grad|_K:  5.344e-07  alpha:  5.104e-01  linmin: -2.290e-04  t[s]:  12941.28
	FillingsUpdate:  mu: -0.049218053  nElectrons: 234.000000  magneticMoment: [ Abs: 1.32851  Tot: -1.17861 ]
	SubspaceRotationAdjust: set factor to 0.16
ElecMinimize: Iter:  44  G: -371.820178474814213  |grad|_K:  5.391e-07  alpha:  6.818e-01  linmin:  3.874e-04  t[s]:  13101.87
	FillingsUpdate:  mu: -0.048771442  nElectrons: 234.000000  magneticMoment: [ Abs: 1.36046  Tot: -1.19616 ]
	SubspaceRotationAdjust: set factor to 0.203
ElecMinimize: Iter:  45  G: -371.820221919450034  |grad|_K:  3.997e-07  alpha:  7.102e-01  linmin: -7.245e-05  t[s]:  13264.66
	FillingsUpdate:  mu: -0.048477991  nElectrons: 234.000000  magneticMoment: [ Abs: 1.38366  Tot: -1.21213 ]
	SubspaceRotationAdjust: set factor to 0.184
ElecMinimize: Iter:  46  G: -371.820247287239170  |grad|_K:  3.096e-07  alpha:  7.152e-01  linmin: -6.031e-05  t[s]:  13425.98
	FillingsUpdate:  mu: -0.048638551  nElectrons: 234.000000  magneticMoment: [ Abs: 1.38262  Tot: -1.20379 ]
	SubspaceRotationAdjust: set factor to 0.127
ElecMinimize: Iter:  47  G: -371.820257996396208  |grad|_K:  2.337e-07  alpha:  5.036e-01  linmin:  8.268e-06  t[s]:  13581.19
	FillingsUpdate:  mu: -0.048510890  nElectrons: 234.000000  magneticMoment: [ Abs: 1.38945  Tot: -1.20865 ]
	SubspaceRotationAdjust: set factor to 0.141
ElecMinimize: Iter:  48  G: -371.820266993247856  |grad|_K:  1.662e-07  alpha:  7.513e-01  linmin:  8.599e-07  t[s]:  13736.90
	FillingsUpdate:  mu: -0.048507415  nElectrons: 234.000000  magneticMoment: [ Abs: 1.39162  Tot: -1.21081 ]
	SubspaceRotationAdjust: set factor to 0.144
ElecMinimize: Iter:  49  G: -371.820270958292156  |grad|_K:  1.315e-07  alpha:  6.543e-01  linmin:  4.105e-06  t[s]:  13898.85
	FillingsUpdate:  mu: -0.048578030  nElectrons: 234.000000  magneticMoment: [ Abs: 1.38975  Tot: -1.20811 ]
	SubspaceRotationAdjust: set factor to 0.136
ElecMinimize: Iter:  50  G: -371.820273874599877  |grad|_K:  1.054e-07  alpha:  7.697e-01  linmin:  5.774e-06  t[s]:  14059.08
	FillingsUpdate:  mu: -0.048481710  nElectrons: 234.000000  magneticMoment: [ Abs: 1.39046  Tot: -1.20895 ]
	SubspaceRotationAdjust: set factor to 0.141
ElecMinimize: Iter:  51  G: -371.820275653115345  |grad|_K:  7.540e-08  alpha:  7.320e-01  linmin:  4.830e-06  t[s]:  14221.02
	FillingsUpdate:  mu: -0.048459566  nElectrons: 234.000000  magneticMoment: [ Abs: 1.39018  Tot: -1.20835 ]
	SubspaceRotationAdjust: set factor to 0.163
ElecMinimize: Iter:  52  G: -371.820276480806001  |grad|_K:  5.955e-08  alpha:  6.651e-01  linmin:  2.746e-06  t[s]:  14379.96
	FillingsUpdate:  mu: -0.048502735  nElectrons: 234.000000  magneticMoment: [ Abs: 1.38876  Tot: -1.20626 ]
	SubspaceRotationAdjust: set factor to 0.166
ElecMinimize: Iter:  53  G: -371.820277161689035  |grad|_K:  5.633e-08  alpha:  8.771e-01  linmin:  2.581e-06  t[s]:  14516.30
	FillingsUpdate:  mu: -0.048468658  nElectrons: 234.000000  magneticMoment: [ Abs: 1.38893  Tot: -1.20665 ]
	SubspaceRotationAdjust: set factor to 0.172
ElecMinimize: Iter:  54  G: -371.820277641815494  |grad|_K:  4.266e-08  alpha:  6.919e-01  linmin:  1.483e-06  t[s]:  14664.21
	FillingsUpdate:  mu: -0.048452201  nElectrons: 234.000000  magneticMoment: [ Abs: 1.38803  Tot: -1.20580 ]
	SubspaceRotationAdjust: set factor to 0.198
ElecMinimize: Iter:  55  G: -371.820277935742354  |grad|_K:  3.146e-08  alpha:  7.376e-01  linmin:  1.625e-06  t[s]:  14825.54
	FillingsUpdate:  mu: -0.048459155  nElectrons: 234.000000  magneticMoment: [ Abs: 1.38696  Tot: -1.20485 ]
	SubspaceRotationAdjust: set factor to 0.217
ElecMinimize: Iter:  56  G: -371.820278075771341  |grad|_K:  2.452e-08  alpha:  6.469e-01  linmin:  5.217e-07  t[s]:  14986.37
	FillingsUpdate:  mu: -0.048445842  nElectrons: 234.000000  magneticMoment: [ Abs: 1.38653  Tot: -1.20494 ]
	SubspaceRotationAdjust: set factor to 0.214
ElecMinimize: Iter:  57  G: -371.820278163272860  |grad|_K:  1.882e-08  alpha:  6.640e-01  linmin:  1.363e-07  t[s]:  15145.50
	FillingsUpdate:  mu: -0.048455341  nElectrons: 234.000000  magneticMoment: [ Abs: 1.38563  Tot: -1.20426 ]
	SubspaceRotationAdjust: set factor to 0.205
ElecMinimize: Iter:  58  G: -371.820278208490265  |grad|_K:  1.353e-08  alpha:  5.810e-01  linmin:  2.274e-07  t[s]:  15307.48
ElecMinimize: Converged (|Delta G|<1.000000e-07 for 2 iters).
Setting wave functions to eigenvectors of Hamiltonian
Converging empty states (this may take a while): |deigs|: 5.231e-03
Vacuum energy after initial minimize, F = -371.820278208490265

Shifting auxilliary hamiltonian by -0.097045 to set nElectrons=234.000000

-------- Electronic minimization -----------
	Linear fluid (dielectric constant: 78.4, screening length: 8.12261 Bohr) occupying 0.689126 of unit cell:	Completed after 23 iterations at t[s]:  16015.97
	FillingsUpdate:  mu: -0.145500000  nElectrons: 234.000000  magneticMoment: [ Abs: 1.38731  Tot: -1.20780 ]
ElecMinimize: Iter:   0  G: -371.828753188408086  |grad|_K:  3.450e-05  alpha:  1.000e+00
	Linear fluid (dielectric constant: 78.4, screening length: 8.12261 Bohr) occupying 0.699586 of unit cell:	Completed after 19 iterations at t[s]:  16172.47
	Linear fluid (dielectric constant: 78.4, screening length: 8.12261 Bohr) occupying 0.699310 of unit cell:	Completed after 15 iterations at t[s]:  16227.20
	FillingsUpdate:  mu: -0.145500000  nElectrons: 233.463337  magneticMoment: [ Abs: 1.11512  Tot: -0.97353 ]
	SubspaceRotationAdjust: set factor to 0.207
ElecMinimize: Iter:   1  G: -371.879814791901708  |grad|_K:  4.760e-06  alpha:  5.562e-01  linmin: -4.667e-03  t[s]:  16288.66
	Linear fluid (dielectric constant: 78.4, screening length: 8.12261 Bohr) occupying 0.699946 of unit cell:	Completed after 14 iterations at t[s]:  16351.04
	Linear fluid (dielectric constant: 78.4, screening length: 8.12261 Bohr) occupying 0.700294 of unit cell:	Completed after 13 iterations at t[s]:  16410.27
	FillingsUpdate:  mu: -0.145500000  nElectrons: 233.423153  magneticMoment: [ Abs: 1.11233  Tot: -0.97212 ]
	SubspaceRotationAdjust: set factor to 0.238
ElecMinimize: Iter:   2  G: -371.884584927890273  |grad|_K:  3.848e-06  alpha:  8.886e-01  linmin: -1.130e-03  t[s]:  16479.96
	Linear fluid (dielectric constant: 78.4, screening length: 8.12261 Bohr) occupying 0.700982 of unit cell:	Completed after 18 iterations at t[s]:  16554.72
	Linear fluid (dielectric constant: 78.4, screening length: 8.12261 Bohr) occupying 0.700781 of unit cell:	Completed after 15 iterations at t[s]:  16616.58
	FillingsUpdate:  mu: -0.145500000  nElectrons: 233.302339  magneticMoment: [ Abs: 1.01806  Tot: -0.85744 ]
	SubspaceRotationAdjust: set factor to 0.219
ElecMinimize: Iter:   3  G: -371.887175786843784  |grad|_K:  4.046e-06  alpha:  5.946e-01  linmin:  1.900e-04  t[s]:  16682.92
	Linear fluid (dielectric constant: 78.4, screening length: 8.12261 Bohr) occupying 0.701526 of unit cell:	Completed after 14 iterations at t[s]:  16751.81
	Linear fluid (dielectric constant: 78.4, screening length: 8.12261 Bohr) occupying 0.701530 of unit cell:	Completed after 0 iterations at t[s]:  16800.12
	FillingsUpdate:  mu: -0.145500000  nElectrons: 233.187361  magneticMoment: [ Abs: 0.93868  Tot: -0.74785 ]
	SubspaceRotationAdjust: set factor to 0.329
ElecMinimize: Iter:   4  G: -371.889200657866297  |grad|_K:  2.890e-06  alpha:  5.978e-01  linmin: -2.123e-05  t[s]:  16868.16
	Linear fluid (dielectric constant: 78.4, screening length: 8.12261 Bohr) occupying 0.701932 of unit cell:	Completed after 14 iterations at t[s]:  16940.21
	Linear fluid (dielectric constant: 78.4, screening length: 8.12261 Bohr) occupying 0.701798 of unit cell:	Completed after 9 iterations at t[s]:  16998.92
	FillingsUpdate:  mu: -0.145500000  nElectrons: 233.170751  magneticMoment: [ Abs: 0.93284  Tot: -0.73907 ]
	SubspaceRotationAdjust: set factor to 0.286
ElecMinimize: Iter:   5  G: -371.889926135730207  |grad|_K:  2.543e-06  alpha:  3.900e-01  linmin: -4.996e-06  t[s]:  17069.00
	Linear fluid (dielectric constant: 78.4, screening length: 8.12261 Bohr) occupying 0.701847 of unit cell:	Completed after 14 iterations at t[s]:  17141.34
	Linear fluid (dielectric constant: 78.4, screening length: 8.12261 Bohr) occupying 0.701842 of unit cell:	Completed after 9 iterations at t[s]:  17200.67
	FillingsUpdate:  mu: -0.145500000  nElectrons: 233.121924  magneticMoment: [ Abs: 0.89129  Tot: -0.70116 ]
	SubspaceRotationAdjust: set factor to 0.23
ElecMinimize: Iter:   6  G: -371.890383754617119  |grad|_K:  1.287e-06  alpha:  3.136e-01  linmin:  8.207e-05  t[s]:  17270.06
	Linear fluid (dielectric constant: 78.4, screening length: 8.12261 Bohr) occupying 0.701851 of unit cell:	Completed after 7 iterations at t[s]:  17336.46
	Linear fluid (dielectric constant: 78.4, screening length: 8.12261 Bohr) occupying 0.701860 of unit cell:	Completed after 9 iterations at t[s]:  17395.22
	FillingsUpdate:  mu: -0.145500000  nElectrons: 233.122575  magneticMoment: [ Abs: 0.88179  Tot: -0.70103 ]
	SubspaceRotationAdjust: set factor to 0.242
ElecMinimize: Iter:   7  G: -371.890697092985931  |grad|_K:  7.766e-07  alpha:  8.892e-01  linmin:  5.007e-05  t[s]:  17465.22
	Linear fluid (dielectric constant: 78.4, screening length: 8.12261 Bohr) occupying 0.701828 of unit cell:	Completed after 8 iterations at t[s]:  17531.44
	Linear fluid (dielectric constant: 78.4, screening length: 8.12261 Bohr) occupying 0.701840 of unit cell:	Completed after 7 iterations at t[s]:  17588.68
	FillingsUpdate:  mu: -0.145500000  nElectrons: 233.121095  magneticMoment: [ Abs: 0.87319  Tot: -0.69623 ]
	SubspaceRotationAdjust: set factor to 0.274
ElecMinimize: Iter:   8  G: -371.890772123565796  |grad|_K:  5.141e-07  alpha:  5.739e-01  linmin:  5.488e-06  t[s]:  17655.16
	Linear fluid (dielectric constant: 78.4, screening length: 8.12261 Bohr) occupying 0.701840 of unit cell:	Completed after 7 iterations at t[s]:  17718.03
	Linear fluid (dielectric constant: 78.4, screening length: 8.12261 Bohr) occupying 0.701840 of unit cell:	Completed after 3 iterations at t[s]:  17769.15
	FillingsUpdate:  mu: -0.145500000  nElectrons: 233.129213  magneticMoment: [ Abs: 0.87205  Tot: -0.69917 ]
	SubspaceRotationAdjust: set factor to 0.346
ElecMinimize: Iter:   9  G: -371.890813213663421  |grad|_K:  3.556e-07  alpha:  7.087e-01  linmin: -2.130e-05  t[s]:  17835.27
	Linear fluid (dielectric constant: 78.4, screening length: 8.12261 Bohr) occupying 0.701858 of unit cell:	Completed after 10 iterations at t[s]:  17903.29
	Linear fluid (dielectric constant: 78.4, screening length: 8.12261 Bohr) occupying 0.701851 of unit cell:	Completed after 8 iterations at t[s]:  17961.23
	FillingsUpdate:  mu: -0.145500000  nElectrons: 233.139256  magneticMoment: [ Abs: 0.87717  Tot: -0.70664 ]
	SubspaceRotationAdjust: set factor to 0.275
ElecMinimize: Iter:  10  G: -371.890824195271705  |grad|_K:  3.141e-07  alpha:  4.075e-01  linmin:  5.041e-05  t[s]:  18023.02
	Linear fluid (dielectric constant: 78.4, screening length: 8.12261 Bohr) occupying 0.701837 of unit cell:	Completed after 4 iterations at t[s]:  18077.54
	Linear fluid (dielectric constant: 78.4, screening length: 8.12261 Bohr) occupying 0.701841 of unit cell:	Completed after 2 iterations at t[s]:  18122.52
	FillingsUpdate:  mu: -0.145500000  nElectrons: 233.140200  magneticMoment: [ Abs: 0.87446  Tot: -0.70603 ]
	SubspaceRotationAdjust: set factor to 0.213
ElecMinimize: Iter:  11  G: -371.890830311509546  |grad|_K:  2.071e-07  alpha:  2.859e-01  linmin:  1.463e-05  t[s]:  18182.63
	Linear fluid (dielectric constant: 78.4, screening length: 8.12261 Bohr) occupying 0.701836 of unit cell:	Completed after 2 iterations at t[s]:  18244.64
	Linear fluid (dielectric constant: 78.4, screening length: 8.12261 Bohr) occupying 0.701832 of unit cell:	Completed after 2 iterations at t[s]:  18297.38
	FillingsUpdate:  mu: -0.145500000  nElectrons: 233.144106  magneticMoment: [ Abs: 0.87455  Tot: -0.70849 ]
	SubspaceRotationAdjust: set factor to 0.259
ElecMinimize: Iter:  12  G: -371.890834840295270  |grad|_K:  1.161e-07  alpha:  4.845e-01  linmin: -6.901e-06  t[s]:  18367.27
	Linear fluid (dielectric constant: 78.4, screening length: 8.12261 Bohr) occupying 0.701826 of unit cell:	Completed after 2 iterations at t[s]:  18429.00
	Linear fluid (dielectric constant: 78.4, screening length: 8.12261 Bohr) occupying 0.701823 of unit cell:	Completed after 0 iterations at t[s]:  18479.71
	FillingsUpdate:  mu: -0.145500000  nElectrons: 233.146356  magneticMoment: [ Abs: 0.87433  Tot: -0.70996 ]
	SubspaceRotationAdjust: set factor to 0.313
ElecMinimize: Iter:  13  G: -371.890836960619595  |grad|_K:  7.110e-08  alpha:  7.055e-01  linmin: -7.101e-05  t[s]:  18550.30
	Linear fluid (dielectric constant: 78.4, screening length: 8.12261 Bohr) occupying 0.701817 of unit cell:	Completed after 2 iterations at t[s]:  18608.87
	Linear fluid (dielectric constant: 78.4, screening length: 8.12261 Bohr) occupying 0.701818 of unit cell:	Completed after 0 iterations at t[s]:  18656.10
	FillingsUpdate:  mu: -0.145500000  nElectrons: 233.146722  magneticMoment: [ Abs: 0.87363  Tot: -0.71004 ]
	SubspaceRotationAdjust: set factor to 0.337
ElecMinimize: Iter:  14  G: -371.890837647681167  |grad|_K:  7.455e-08  alpha:  5.959e-01  linmin:  1.341e-05  t[s]:  18723.32
	Linear fluid (dielectric constant: 78.4, screening length: 8.12261 Bohr) occupying 0.701814 of unit cell:	Completed after 3 iterations at t[s]:  18782.61
	Linear fluid (dielectric constant: 78.4, screening length: 8.12261 Bohr) occupying 0.701816 of unit cell:	Completed after 1 iterations at t[s]:  18832.97
	FillingsUpdate:  mu: -0.145500000  nElectrons: 233.147748  magneticMoment: [ Abs: 0.87391  Tot: -0.71088 ]
	SubspaceRotationAdjust: set factor to 0.267
ElecMinimize: Iter:  15  G: -371.890837988856561  |grad|_K:  6.571e-08  alpha:  3.134e-01  linmin:  2.327e-05  t[s]:  18903.06
	Linear fluid (dielectric constant: 78.4, screening length: 8.12261 Bohr) occupying 0.701812 of unit cell:	Completed after 2 iterations at t[s]:  18964.42
	Linear fluid (dielectric constant: 78.4, screening length: 8.12261 Bohr) occupying 0.701812 of unit cell:	Completed after 0 iterations at t[s]:  19014.26
	FillingsUpdate:  mu: -0.145500000  nElectrons: 233.147257  magneticMoment: [ Abs: 0.87282  Tot: -0.71030 ]
	SubspaceRotationAdjust: set factor to 0.276
ElecMinimize: Iter:  16  G: -371.890838263049261  |grad|_K:  3.485e-08  alpha:  3.017e-01  linmin: -3.167e-05  t[s]:  19083.89
	Linear fluid (dielectric constant: 78.4, screening length: 8.12261 Bohr) occupying 0.701811 of unit cell:	Completed after 0 iterations at t[s]:  19142.64
	Linear fluid (dielectric constant: 78.4, screening length: 8.12261 Bohr) occupying 0.701809 of unit cell:	Completed after 0 iterations at t[s]:  19193.00
	FillingsUpdate:  mu: -0.145500000  nElectrons: 233.146829  magneticMoment: [ Abs: 0.87184  Tot: -0.70987 ]
	SubspaceRotationAdjust: set factor to 0.337
ElecMinimize: Iter:  17  G: -371.890838484429253  |grad|_K:  2.973e-08  alpha:  8.339e-01  linmin:  1.161e-05  t[s]:  19261.17
	Linear fluid (dielectric constant: 78.4, screening length: 8.12261 Bohr) occupying 0.701809 of unit cell:	Completed after 1 iterations at t[s]:  19322.03
	Linear fluid (dielectric constant: 78.4, screening length: 8.12261 Bohr) occupying 0.701809 of unit cell:	Completed after 0 iterations at t[s]:  19371.86
	FillingsUpdate:  mu: -0.145500000  nElectrons: 233.146702  magneticMoment: [ Abs: 0.87146  Tot: -0.70978 ]
	SubspaceRotationAdjust: set factor to 0.32
ElecMinimize: Iter:  18  G: -371.890838556445601  |grad|_K:  3.242e-08  alpha:  4.556e-01  linmin:  1.182e-05  t[s]:  19441.69
	Linear fluid (dielectric constant: 78.4, screening length: 8.12261 Bohr) occupying 0.701808 of unit cell:	Completed after 2 iterations at t[s]:  19502.84
	Linear fluid (dielectric constant: 78.4, screening length: 8.12261 Bohr) occupying 0.701808 of unit cell:	Completed after 0 iterations at t[s]:  19553.77
	FillingsUpdate:  mu: -0.145500000  nElectrons: 233.146358  magneticMoment: [ Abs: 0.87098  Tot: -0.70948 ]
	SubspaceRotationAdjust: set factor to 0.236
ElecMinimize: Iter:  19  G: -371.890838592024920  |grad|_K:  3.829e-08  alpha:  1.908e-01  linmin:  7.310e-05  t[s]:  19622.13
ElecMinimize: Converged (|Delta G|<1.000000e-07 for 2 iters).
Setting wave functions to eigenvectors of Hamiltonian
Converging empty states (this may take a while): |deigs|: 4.530e-03
Single-point solvation energy estimate, DeltaG = -0.070560383534655

Computing DFT-D3 correction:
# coordination-number C 3.301 3.323 3.336 3.332 3.313 3.291 3.322 3.534 3.329 3.313 3.303 3.341 3.301 3.301 3.323 3.747 3.269 3.303 3.320 3.334 3.326 3.306 3.302 3.331 3.336 3.320 3.301 3.270 3.530 3.322 3.302 3.306 3.315 3.301 3.313 3.327 3.743 3.334 3.292 3.314 3.333 3.333 3.322 3.303 2.991
# coordination-number N 3.171 3.185 3.176 3.186
# coordination-number Ti 6.851
# coordination-number O 2.111 1.171 2.941
# coordination-number H 0.988 0.989 1.054 1.002
# diagonal-C6 C 24.27 24.05 23.90 23.95 24.16 24.36 24.06 21.15 23.99 24.15 24.25 23.85 24.28 24.27 24.05 19.00 24.55 24.26 24.08 23.93 24.02 24.23 24.26 23.97 23.91 24.08 24.27 24.55 21.21 24.06 24.26 24.22 24.13 24.27 24.15 24.00 19.02 23.93 24.36 24.14 23.94 23.94 24.06 24.25 25.69
# diagonal-C6 N 15.60 15.60 15.60 15.60
# diagonal-C6 Ti 321.59
# diagonal-C6 O 10.39 12.64 10.37
# diagonal-C6 H 3.10 3.10 3.07 3.09
EvdW_6 =   -0.042965
EvdW_8 =   -0.033233
Completed 1 of 25 configurations.

Computing DFT-D3 correction:
# coordination-number C 3.301 3.323 3.336 3.332 3.313 3.291 3.322 3.534 3.329 3.313 3.303 3.341 3.301 3.301 3.323 3.747 3.269 3.303 3.320 3.334 3.326 3.306 3.302 3.331 3.336 3.320 3.301 3.270 3.530 3.322 3.302 3.306 3.315 3.301 3.313 3.327 3.743 3.334 3.292 3.314 3.333 3.333 3.322 3.303 2.991
# coordination-number N 3.171 3.185 3.176 3.186
# coordination-number Ti 6.851
# coordination-number O 2.110 1.171 2.941
# coordination-number H 0.988 0.989 1.054 1.002
# diagonal-C6 C 24.27 24.05 23.90 23.95 24.16 24.36 24.06 21.15 23.99 24.15 24.25 23.85 24.28 24.27 24.05 19.00 24.55 24.26 24.08 23.93 24.02 24.23 24.26 23.97 23.91 24.08 24.27 24.55 21.21 24.06 24.26 24.22 24.13 24.27 24.15 24.00 19.02 23.93 24.36 24.14 23.94 23.94 24.06 24.25 25.69
# diagonal-C6 N 15.60 15.60 15.60 15.60
# diagonal-C6 Ti 321.59
# diagonal-C6 O 10.39 12.64 10.37
# diagonal-C6 H 3.10 3.10 3.07 3.09
EvdW_6 =   -0.042965
EvdW_8 =   -0.033233
Shifting auxilliary hamiltonian by 0.000095 to set nElectrons=233.146358

-------- Electronic minimization -----------
	Linear fluid (dielectric constant: 78.4, screening length: 8.12261 Bohr) occupying 0.701813 of unit cell:	Completed after 6 iterations at t[s]:  20825.54
	FillingsUpdate:  mu: -0.145500000  nElectrons: 233.146358  magneticMoment: [ Abs: 0.87236  Tot: -0.71022 ]
ElecMinimize: Iter:   0  G: -371.890807640774312  |grad|_K:  4.204e-07  alpha:  1.000e+00
	Linear fluid (dielectric constant: 78.4, screening length: 8.12261 Bohr) occupying 0.701781 of unit cell:	Completed after 12 iterations at t[s]:  20970.19
	Linear fluid (dielectric constant: 78.4, screening length: 8.12261 Bohr) occupying 0.701803 of unit cell:	Completed after 10 iterations at t[s]:  21029.72
	FillingsUpdate:  mu: -0.145500000  nElectrons: 233.141851  magneticMoment: [ Abs: 0.86774  Tot: -0.70576 ]
	SubspaceRotationAdjust: set factor to 0.16
ElecMinimize: Iter:   1  G: -371.890819603137402  |grad|_K:  2.965e-07  alpha:  2.995e-01  linmin: -6.817e-05  t[s]:  21099.26
	Linear fluid (dielectric constant: 78.4, screening length: 8.12261 Bohr) occupying 0.701809 of unit cell:	Completed after 3 iterations at t[s]:  21161.54
	Linear fluid (dielectric constant: 78.4, screening length: 8.12261 Bohr) occupying 0.701812 of unit cell:	Completed after 3 iterations at t[s]:  21214.90
	FillingsUpdate:  mu: -0.145500000  nElectrons: 233.144840  magneticMoment: [ Abs: 0.87005  Tot: -0.70851 ]
	SubspaceRotationAdjust: set factor to 0.215
ElecMinimize: Iter:   2  G: -371.890828824655046  |grad|_K:  1.194e-07  alpha:  4.700e-01  linmin: -7.755e-06  t[s]:  21284.72
	Linear fluid (dielectric constant: 78.4, screening length: 8.12261 Bohr) occupying 0.701814 of unit cell:	Completed after 2 iterations at t[s]:  21345.34
	Linear fluid (dielectric constant: 78.4, screening length: 8.12261 Bohr) occupying 0.701816 of unit cell:	Completed after 2 iterations at t[s]:  21398.38
	FillingsUpdate:  mu: -0.145500000  nElectrons: 233.146195  magneticMoment: [ Abs: 0.87096  Tot: -0.70970 ]
	SubspaceRotationAdjust: set factor to 0.272
ElecMinimize: Iter:   3  G: -371.890831624615089  |grad|_K:  8.693e-08  alpha:  8.661e-01  linmin: -5.774e-05  t[s]:  21468.31
	Linear fluid (dielectric constant: 78.4, screening length: 8.12261 Bohr) occupying 0.701816 of unit cell:	Completed after 2 iterations at t[s]:  21529.61
	Linear fluid (dielectric constant: 78.4, screening length: 8.12261 Bohr) occupying 0.701816 of unit cell:	Completed after 0 iterations at t[s]:  21579.03
	FillingsUpdate:  mu: -0.145500000  nElectrons: 233.146457  magneticMoment: [ Abs: 0.87095  Tot: -0.70986 ]
	SubspaceRotationAdjust: set factor to 0.361
ElecMinimize: Iter:   4  G: -371.890833013257009  |grad|_K:  6.275e-08  alpha:  7.954e-01  linmin:  6.120e-06  t[s]:  21640.84
	Linear fluid (dielectric constant: 78.4, screening length: 8.12261 Bohr) occupying 0.701816 of unit cell:	Completed after 3 iterations at t[s]:  21693.53
	Linear fluid (dielectric constant: 78.4, screening length: 8.12261 Bohr) occupying 0.701816 of unit cell:	Completed after 0 iterations at t[s]:  21735.34
	FillingsUpdate:  mu: -0.145500000  nElectrons: 233.147471  magneticMoment: [ Abs: 0.87175  Tot: -0.71079 ]
	SubspaceRotationAdjust: set factor to 0.429
ElecMinimize: Iter:   5  G: -371.890833687780287  |grad|_K:  5.166e-08  alpha:  7.881e-01  linmin: -1.263e-05  t[s]:  21795.53
	Linear fluid (dielectric constant: 78.4, screening length: 8.12261 Bohr) occupying 0.701812 of unit cell:	Completed after 1 iterations at t[s]:  21853.29
	Linear fluid (dielectric constant: 78.4, screening length: 8.12261 Bohr) occupying 0.701813 of unit cell:	Completed after 1 iterations at t[s]:  21902.20
	FillingsUpdate:  mu: -0.145500000  nElectrons: 233.147234  magneticMoment: [ Abs: 0.87149  Tot: -0.71057 ]
	SubspaceRotationAdjust: set factor to 0.334
ElecMinimize: Iter:   6  G: -371.890833986860457  |grad|_K:  6.497e-08  alpha:  4.921e-01  linmin:  3.301e-05  t[s]:  21972.65
	Linear fluid (dielectric constant: 78.4, screening length: 8.12261 Bohr) occupying 0.701813 of unit cell:	Completed after 3 iterations at t[s]:  22035.00
	Linear fluid (dielectric constant: 78.4, screening length: 8.12261 Bohr) occupying 0.701813 of unit cell:	Completed after 2 iterations at t[s]:  22087.75
	FillingsUpdate:  mu: -0.145500000  nElectrons: 233.147788  magneticMoment: [ Abs: 0.87206  Tot: -0.71113 ]
	SubspaceRotationAdjust: set factor to 0.204
ElecMinimize: Iter:   7  G: -371.890834087956364  |grad|_K:  3.759e-08  alpha:  1.584e-01  linmin:  2.299e-05  t[s]:  22157.31
	Linear fluid (dielectric constant: 78.4, screening length: 8.12261 Bohr) occupying 0.701813 of unit cell:	Completed after 0 iterations at t[s]:  22215.95
	Linear fluid (dielectric constant: 78.4, screening length: 8.12261 Bohr) occupying 0.701811 of unit cell:	Completed after 0 iterations at t[s]:  22265.52
	FillingsUpdate:  mu: -0.145500000  nElectrons: 233.147619  magneticMoment: [ Abs: 0.87201  Tot: -0.71101 ]
	SubspaceRotationAdjust: set factor to 0.28
ElecMinimize: Iter:   8  G: -371.890834221249065  |grad|_K:  2.346e-08  alpha:  4.684e-01  linmin:  8.791e-07  t[s]:  22334.51
	Linear fluid (dielectric constant: 78.4, screening length: 8.12261 Bohr) occupying 0.701810 of unit cell:	Completed after 2 iterations at t[s]:  22396.02
	Linear fluid (dielectric constant: 78.4, screening length: 8.12261 Bohr) occupying 0.701811 of unit cell:	Completed after 0 iterations at t[s]:  22446.28
	FillingsUpdate:  mu: -0.145500000  nElectrons: 233.147435  magneticMoment: [ Abs: 0.87185  Tot: -0.71085 ]
	SubspaceRotationAdjust: set factor to 0.194
ElecMinimize: Iter:   9  G: -371.890834232984446  |grad|_K:  4.012e-08  alpha:  1.646e-01  linmin:  3.416e-04  t[s]:  22516.19
	Linear fluid (dielectric constant: 78.4, screening length: 8.12261 Bohr) occupying 0.701810 of unit cell:	Completed after 0 iterations at t[s]:  22575.25
	Linear fluid (dielectric constant: 78.4, screening length: 8.12261 Bohr) occupying 0.701810 of unit cell:	Completed after 0 iterations at t[s]:  22625.38
	FillingsUpdate:  mu: -0.145500000  nElectrons: 233.147349  magneticMoment: [ Abs: 0.87182  Tot: -0.71079 ]
	SubspaceRotationAdjust: set factor to 0.138
ElecMinimize: Iter:  10  G: -371.890834242624578  |grad|_K:  3.368e-08  alpha:  8.795e-02  linmin:  1.482e-07  t[s]:  22693.97
ElecMinimize: Converged (|Delta G|<1.000000e-07 for 2 iters).
Setting wave functions to eigenvectors of Hamiltonian
Converging empty states (this may take a while): |deigs|: 6.096e-08

Computing DFT-D3 correction:
# coordination-number C 3.301 3.323 3.336 3.332 3.313 3.291 3.322 3.534 3.329 3.313 3.303 3.341 3.301 3.301 3.323 3.747 3.269 3.303 3.320 3.334 3.326 3.306 3.302 3.331 3.336 3.320 3.301 3.270 3.530 3.322 3.302 3.306 3.315 3.301 3.313 3.327 3.743 3.334 3.292 3.314 3.333 3.333 3.322 3.303 2.991
# coordination-number N 3.171 3.185 3.176 3.186
# coordination-number Ti 6.851
# coordination-number O 2.110 1.171 2.941
# coordination-number H 0.988 0.989 1.054 1.002
# diagonal-C6 C 24.27 24.05 23.90 23.95 24.16 24.36 24.06 21.15 23.99 24.15 24.25 23.85 24.28 24.27 24.05 19.00 24.55 24.26 24.08 23.93 24.02 24.23 24.26 23.97 23.91 24.08 24.27 24.55 21.21 24.06 24.26 24.22 24.13 24.27 24.15 24.00 19.02 23.93 24.36 24.14 23.94 23.94 24.06 24.25 25.69
# diagonal-C6 N 15.60 15.60 15.60 15.60
# diagonal-C6 Ti 321.59
# diagonal-C6 O 10.39 12.64 10.37
# diagonal-C6 H 3.10 3.10 3.07 3.09
EvdW_6 =   -0.042965
EvdW_8 =   -0.033233
Completed 2 of 25 configurations.

Computing DFT-D3 correction:
# coordination-number C 3.301 3.323 3.336 3.332 3.313 3.291 3.322 3.534 3.329 3.313 3.303 3.341 3.301 3.301 3.323 3.747 3.269 3.303 3.320 3.334 3.326 3.306 3.302 3.331 3.336 3.320 3.301 3.270 3.530 3.322 3.302 3.306 3.315 3.301 3.313 3.327 3.743 3.334 3.292 3.314 3.333 3.333 3.322 3.303 2.992
# coordination-number N 3.171 3.185 3.176 3.186
# coordination-number Ti 6.851
# coordination-number O 2.111 1.171 2.941
# coordination-number H 0.988 0.989 1.054 1.003
# diagonal-C6 C 24.27 24.05 23.90 23.95 24.16 24.36 24.06 21.15 23.99 24.15 24.25 23.85 24.28 24.27 24.05 19.00 24.55 24.26 24.08 23.93 24.02 24.23 24.26 23.97 23.91 24.08 24.27 24.55 21.21 24.06 24.26 24.22 24.13 24.27 24.15 24.00 19.02 23.93 24.36 24.14 23.94 23.94 24.06 24.25 25.69
[...]
disp H  -0.006321406417535  -0.002276613499506  -0.001517838298012
disp H   0.002929259439324  -0.019663074527487   0.002024637597931
disp H  -0.001893641688218  -0.001437258255607  -0.002064570282895

Real mode 17:
Frequency: 0.010960 Eh [ 2406 cm^-1 ]
Degeneracy: 1 of 1
IR intensity: 9.0292 e^2/amu [ 8802.3 km/mol ]
Displacements:
disp C   0.000000000000000   0.000000000000000   0.000000000000000
disp C   0.000000000000000   0.000000000000000   0.000000000000000
disp C   0.000000000000000   0.000000000000000   0.000000000000000
disp C   0.000000000000000   0.000000000000000   0.000000000000000
disp C   0.000000000000000   0.000000000000000   0.000000000000000
disp C   0.000000000000000   0.000000000000000   0.000000000000000
disp C   0.000000000000000   0.000000000000000   0.000000000000000
disp C   0.000000000000000   0.000000000000000   0.000000000000000
disp C   0.000000000000000   0.000000000000000   0.000000000000000
disp C   0.000000000000000   0.000000000000000   0.000000000000000
disp C   0.000000000000000   0.000000000000000   0.000000000000000
disp C   0.000000000000000   0.000000000000000   0.000000000000000
disp C   0.000000000000000   0.000000000000000   0.000000000000000
disp C   0.000000000000000   0.000000000000000   0.000000000000000
disp C   0.000000000000000   0.000000000000000   0.000000000000000
disp C   0.000000000000000   0.000000000000000   0.000000000000000
disp C   0.000000000000000   0.000000000000000   0.000000000000000
disp C   0.000000000000000   0.000000000000000   0.000000000000000
disp C   0.000000000000000   0.000000000000000   0.000000000000000
disp C   0.000000000000000   0.000000000000000   0.000000000000000
disp C   0.000000000000000   0.000000000000000   0.000000000000000
disp C   0.000000000000000   0.000000000000000   0.000000000000000
disp C   0.000000000000000   0.000000000000000   0.000000000000000
disp C   0.000000000000000   0.000000000000000   0.000000000000000
disp C   0.000000000000000   0.000000000000000   0.000000000000000
disp C   0.000000000000000   0.000000000000000   0.000000000000000
disp C   0.000000000000000   0.000000000000000   0.000000000000000
disp C   0.000000000000000   0.000000000000000   0.000000000000000
disp C   0.000000000000000   0.000000000000000   0.000000000000000
disp C   0.000000000000000   0.000000000000000   0.000000000000000
disp C   0.000000000000000   0.000000000000000   0.000000000000000
disp C   0.000000000000000   0.000000000000000   0.000000000000000
disp C   0.000000000000000   0.000000000000000   0.000000000000000
disp C   0.000000000000000   0.000000000000000   0.000000000000000
disp C   0.000000000000000   0.000000000000000   0.000000000000000
disp C   0.000000000000000   0.000000000000000   0.000000000000000
disp C   0.000000000000000   0.000000000000000   0.000000000000000
disp C   0.000000000000000   0.000000000000000   0.000000000000000
disp C   0.000000000000000   0.000000000000000   0.000000000000000
disp C   0.000000000000000   0.000000000000000   0.000000000000000
disp C   0.000000000000000   0.000000000000000   0.000000000000000
disp C   0.000000000000000   0.000000000000000   0.000000000000000
disp C   0.000000000000000   0.000000000000000   0.000000000000000
disp C   0.000000000000000   0.000000000000000   0.000000000000000
disp C  -0.000115498503371   0.000341450879049   0.000354612318321
disp N   0.000000000000000   0.000000000000000   0.000000000000000
disp N   0.000000000000000   0.000000000000000   0.000000000000000
disp N   0.000000000000000   0.000000000000000   0.000000000000000
disp N   0.000000000000000   0.000000000000000   0.000000000000000
disp Ti   0.000000000000000   0.000000000000000   0.000000000000000
disp O  -0.000122223434096  -0.000227710666219  -0.000244629780087
disp O   0.000014637023138  -0.000124793455751   0.000020848979062
disp O   0.001416495736341   0.000336827068322   0.000735170528035
disp H  -0.000395585324005   0.000357224312613  -0.001045293273699
disp H  -0.000112885132439  -0.000685513593670  -0.000778897411365
disp H  -0.020207655897806  -0.003992659892425  -0.008310734346278
disp H  -0.000126658221215   0.000038494552620  -0.000933927315663

Real mode 18:
Frequency: 0.016015 Eh [ 3515 cm^-1 ]
Degeneracy: 1 of 1
IR intensity: 0.8109 e^2/amu [ 790.5 km/mol ]
Displacements:
disp C   0.000000000000000   0.000000000000000   0.000000000000000
disp C   0.000000000000000   0.000000000000000   0.000000000000000
disp C   0.000000000000000   0.000000000000000   0.000000000000000
disp C   0.000000000000000   0.000000000000000   0.000000000000000
disp C   0.000000000000000   0.000000000000000   0.000000000000000
disp C   0.000000000000000   0.000000000000000   0.000000000000000
disp C   0.000000000000000   0.000000000000000   0.000000000000000
disp C   0.000000000000000   0.000000000000000   0.000000000000000
disp C   0.000000000000000   0.000000000000000   0.000000000000000
disp C   0.000000000000000   0.000000000000000   0.000000000000000
disp C   0.000000000000000   0.000000000000000   0.000000000000000
disp C   0.000000000000000   0.000000000000000   0.000000000000000
disp C   0.000000000000000   0.000000000000000   0.000000000000000
disp C   0.000000000000000   0.000000000000000   0.000000000000000
disp C   0.000000000000000   0.000000000000000   0.000000000000000
disp C   0.000000000000000   0.000000000000000   0.000000000000000
disp C   0.000000000000000   0.000000000000000   0.000000000000000
disp C   0.000000000000000   0.000000000000000   0.000000000000000
disp C   0.000000000000000   0.000000000000000   0.000000000000000
disp C   0.000000000000000   0.000000000000000   0.000000000000000
disp C   0.000000000000000   0.000000000000000   0.000000000000000
disp C   0.000000000000000   0.000000000000000   0.000000000000000
disp C   0.000000000000000   0.000000000000000   0.000000000000000
disp C   0.000000000000000   0.000000000000000   0.000000000000000
disp C   0.000000000000000   0.000000000000000   0.000000000000000
disp C   0.000000000000000   0.000000000000000   0.000000000000000
disp C   0.000000000000000   0.000000000000000   0.000000000000000
disp C   0.000000000000000   0.000000000000000   0.000000000000000
disp C   0.000000000000000   0.000000000000000   0.000000000000000
disp C   0.000000000000000   0.000000000000000   0.000000000000000
disp C   0.000000000000000   0.000000000000000   0.000000000000000
disp C   0.000000000000000   0.000000000000000   0.000000000000000
disp C   0.000000000000000   0.000000000000000   0.000000000000000
disp C   0.000000000000000   0.000000000000000   0.000000000000000
disp C   0.000000000000000   0.000000000000000   0.000000000000000
disp C   0.000000000000000   0.000000000000000   0.000000000000000
disp C   0.000000000000000   0.000000000000000   0.000000000000000
disp C   0.000000000000000   0.000000000000000   0.000000000000000
disp C   0.000000000000000   0.000000000000000   0.000000000000000
disp C   0.000000000000000   0.000000000000000   0.000000000000000
disp C   0.000000000000000   0.000000000000000   0.000000000000000
disp C   0.000000000000000   0.000000000000000   0.000000000000000
disp C   0.000000000000000   0.000000000000000   0.000000000000000
disp C   0.000000000000000   0.000000000000000   0.000000000000000
disp C  -0.000000973075802   0.000003880862467  -0.000031522742007
disp N   0.000000000000000   0.000000000000000   0.000000000000000
disp N   0.000000000000000   0.000000000000000   0.000000000000000
disp N   0.000000000000000   0.000000000000000   0.000000000000000
disp N   0.000000000000000   0.000000000000000   0.000000000000000
disp Ti   0.000000000000000   0.000000000000000   0.000000000000000
disp O   0.000014982381762  -0.000002373681924   0.000004724384152
disp O   0.000000316908526  -0.000000174584067  -0.000011446951188
disp O  -0.000070288481701  -0.001091843206071  -0.000761564465875
disp H   0.000213996433289   0.020328445218920   0.009000755973579
disp H   0.001288135158193  -0.003256173907792   0.002933029725572
disp H  -0.000647456396654  -0.000076781966085  -0.000659055943583
disp H   0.000033384844683   0.000039923604166  -0.000029825207553

Real mode 19:
Frequency: 0.016272 Eh [ 3571 cm^-1 ]
Degeneracy: 1 of 1
IR intensity: 0.8207 e^2/amu [ 800.1 km/mol ]
Displacements:
disp C   0.000000000000000   0.000000000000000   0.000000000000000
disp C   0.000000000000000   0.000000000000000   0.000000000000000
disp C   0.000000000000000   0.000000000000000   0.000000000000000
disp C   0.000000000000000   0.000000000000000   0.000000000000000
disp C   0.000000000000000   0.000000000000000   0.000000000000000
disp C   0.000000000000000   0.000000000000000   0.000000000000000
disp C   0.000000000000000   0.000000000000000   0.000000000000000
disp C   0.000000000000000   0.000000000000000   0.000000000000000
disp C   0.000000000000000   0.000000000000000   0.000000000000000
disp C   0.000000000000000   0.000000000000000   0.000000000000000
disp C   0.000000000000000   0.000000000000000   0.000000000000000
disp C   0.000000000000000   0.000000000000000   0.000000000000000
disp C   0.000000000000000   0.000000000000000   0.000000000000000
disp C   0.000000000000000   0.000000000000000   0.000000000000000
disp C   0.000000000000000   0.000000000000000   0.000000000000000
disp C   0.000000000000000   0.000000000000000   0.000000000000000
disp C   0.000000000000000   0.000000000000000   0.000000000000000
disp C   0.000000000000000   0.000000000000000   0.000000000000000
disp C   0.000000000000000   0.000000000000000   0.000000000000000
disp C   0.000000000000000   0.000000000000000   0.000000000000000
disp C   0.000000000000000   0.000000000000000   0.000000000000000
disp C   0.000000000000000   0.000000000000000   0.000000000000000
disp C   0.000000000000000   0.000000000000000   0.000000000000000
disp C   0.000000000000000   0.000000000000000   0.000000000000000
disp C   0.000000000000000   0.000000000000000   0.000000000000000
disp C   0.000000000000000   0.000000000000000   0.000000000000000
disp C   0.000000000000000   0.000000000000000   0.000000000000000
disp C   0.000000000000000   0.000000000000000   0.000000000000000
disp C   0.000000000000000   0.000000000000000   0.000000000000000
disp C   0.000000000000000   0.000000000000000   0.000000000000000
disp C   0.000000000000000   0.000000000000000   0.000000000000000
disp C   0.000000000000000   0.000000000000000   0.000000000000000
disp C   0.000000000000000   0.000000000000000   0.000000000000000
disp C   0.000000000000000   0.000000000000000   0.000000000000000
disp C   0.000000000000000   0.000000000000000   0.000000000000000
disp C   0.000000000000000   0.000000000000000   0.000000000000000
disp C   0.000000000000000   0.000000000000000   0.000000000000000
disp C   0.000000000000000   0.000000000000000   0.000000000000000
disp C   0.000000000000000   0.000000000000000   0.000000000000000
disp C   0.000000000000000   0.000000000000000   0.000000000000000
disp C   0.000000000000000   0.000000000000000   0.000000000000000
disp C   0.000000000000000   0.000000000000000   0.000000000000000
disp C   0.000000000000000   0.000000000000000   0.000000000000000
disp C   0.000000000000000   0.000000000000000   0.000000000000000
disp C  -0.000001457859952   0.000009506616685   0.000003399356346
disp N   0.000000000000000   0.000000000000000   0.000000000000000
disp N   0.000000000000000   0.000000000000000   0.000000000000000
disp N   0.000000000000000   0.000000000000000   0.000000000000000
disp N   0.000000000000000   0.000000000000000   0.000000000000000
disp Ti   0.000000000000000   0.000000000000000   0.000000000000000
disp O  -0.000012016237894   0.000019850690527  -0.000022085389057
disp O   0.000000588724260  -0.000001469583702  -0.000004048695061
disp O   0.000361490769509  -0.001207114447465   0.000850278308056
disp H  -0.000157326764769   0.003638730276049   0.001926711452636
disp H  -0.005635310427544   0.015129692186010  -0.015145677510264
disp H   0.000438853574372   0.000231377625192   0.000377022730013
disp H   0.000099823792127  -0.000322206222511   0.000160298631163

Real mode 20:
Frequency: 0.016669 Eh [ 3658 cm^-1 ]
Degeneracy: 1 of 1
IR intensity: 0.6369 e^2/amu [ 620.9 km/mol ]
Displacements:
disp C   0.000000000000000   0.000000000000000   0.000000000000000
disp C   0.000000000000000   0.000000000000000   0.000000000000000
disp C   0.000000000000000   0.000000000000000   0.000000000000000
disp C   0.000000000000000   0.000000000000000   0.000000000000000
disp C   0.000000000000000   0.000000000000000   0.000000000000000
disp C   0.000000000000000   0.000000000000000   0.000000000000000
disp C   0.000000000000000   0.000000000000000   0.000000000000000
disp C   0.000000000000000   0.000000000000000   0.000000000000000
disp C   0.000000000000000   0.000000000000000   0.000000000000000
disp C   0.000000000000000   0.000000000000000   0.000000000000000
disp C   0.000000000000000   0.000000000000000   0.000000000000000
disp C   0.000000000000000   0.000000000000000   0.000000000000000
disp C   0.000000000000000   0.000000000000000   0.000000000000000
disp C   0.000000000000000   0.000000000000000   0.000000000000000
disp C   0.000000000000000   0.000000000000000   0.000000000000000
disp C   0.000000000000000   0.000000000000000   0.000000000000000
disp C   0.000000000000000   0.000000000000000   0.000000000000000
disp C   0.000000000000000   0.000000000000000   0.000000000000000
disp C   0.000000000000000   0.000000000000000   0.000000000000000
disp C   0.000000000000000   0.000000000000000   0.000000000000000
disp C   0.000000000000000   0.000000000000000   0.000000000000000
disp C   0.000000000000000   0.000000000000000   0.000000000000000
disp C   0.000000000000000   0.000000000000000   0.000000000000000
disp C   0.000000000000000   0.000000000000000   0.000000000000000
disp C   0.000000000000000   0.000000000000000   0.000000000000000
disp C   0.000000000000000   0.000000000000000   0.000000000000000
disp C   0.000000000000000   0.000000000000000   0.000000000000000
disp C   0.000000000000000   0.000000000000000   0.000000000000000
disp C   0.000000000000000   0.000000000000000   0.000000000000000
disp C   0.000000000000000   0.000000000000000   0.000000000000000
disp C   0.000000000000000   0.000000000000000   0.000000000000000
disp C   0.000000000000000   0.000000000000000   0.000000000000000
disp C   0.000000000000000   0.000000000000000   0.000000000000000
disp C   0.000000000000000   0.000000000000000   0.000000000000000
disp C   0.000000000000000   0.000000000000000   0.000000000000000
disp C   0.000000000000000   0.000000000000000   0.000000000000000
disp C   0.000000000000000   0.000000000000000   0.000000000000000
disp C   0.000000000000000   0.000000000000000   0.000000000000000
disp C   0.000000000000000   0.000000000000000   0.000000000000000
disp C   0.000000000000000   0.000000000000000   0.000000000000000
disp C   0.000000000000000   0.000000000000000   0.000000000000000
disp C   0.000000000000000   0.000000000000000   0.000000000000000
disp C   0.000000000000000   0.000000000000000   0.000000000000000
disp C   0.000000000000000   0.000000000000000   0.000000000000000
disp C  -0.000010074891188   0.000057482686015   0.000011837249360
disp N   0.000000000000000   0.000000000000000   0.000000000000000
disp N   0.000000000000000   0.000000000000000   0.000000000000000
disp N   0.000000000000000   0.000000000000000   0.000000000000000
disp N   0.000000000000000   0.000000000000000   0.000000000000000
disp Ti   0.000000000000000   0.000000000000000   0.000000000000000
disp O  -0.000469031566427   0.001224344613002  -0.000558642521664
disp O   0.000007317444941  -0.000022829408360   0.000009013957699
disp O   0.000012860531305   0.000022875349652  -0.000004340977516
disp H   0.000005255898789  -0.000034419818162  -0.000011220405987
disp H   0.000102833419144  -0.000246752659315   0.000258559695362
disp H  -0.000407791208832  -0.000079667216351  -0.000275737798410
disp H   0.007614501329723  -0.019275313215578   0.009058019124287

Vibrational free energy components at T = 298 K:
	ZPE:          0.056255
	Evib:         0.060223
	TSvib:        0.006805
	Avib:         0.053418


Dumping 'jdft.n_up' ... done
Dumping 'jdft.n_dn' ... done
Dumping 'jdft.tau_up' ... done
Dumping 'jdft.tau_dn' ... done
Dumping 'jdft.eigenvals' ... done
Dumping 'jdft.eigStats' ... 
	eMin: -2.275413 at state 12 ( [ +0.333333 +0.000000 +0.000000 ] spin -1 )
	HOMO: -0.146538 at state 11 ( [ +0.000000 -0.333333 +0.000000 ] spin -1 )
	mu  : -0.145500
	LUMO: -0.142107 at state 13 ( [ +0.333333 +0.333333 +0.000000 ] spin -1 )
	eMax: +0.018605 at state 0 ( [ +0.000000 +0.000000 +0.000000 ] spin 1 )
	HOMO-LUMO gap: +0.004431
	Optical gap  : +0.011473 at state 13 ( [ +0.333333 +0.333333 +0.000000 ] spin -1 )
Dumping 'jdft.kPts' ... done
Dumping 'jdft.dosUp' ... done.
Dumping 'jdft.dosDn' ... done.
End date and time: Wed Nov 23 12:11:45 2022  (Duration: 0-18:17:22.65)
Done!

PROFILER:             augmentDensityGrid     0.855989 +/-     1.023121 s, 3470 calls,   2970.283034 s total
PROFILER:         augmentDensityGridGrad     0.618889 +/-     0.767272 s, 1955 calls,   1209.928774 s total
PROFILER:        augmentDensitySpherical     0.000592 +/-     0.000824 s, 3470 calls,      2.052515 s total
PROFILER:    augmentDensitySphericalGrad     0.000700 +/-     0.001398 s, 2485 calls,      1.739522 s total
PROFILER:                 augmentOverlap     1.856919 +/-     2.670176 s, 7220 calls,  13406.958650 s total
PROFILER:        ColumnBundle::randomize     0.006813 +/-     0.000000 s,    1 calls,      0.006813 s total
PROFILER:                     diagouterI    20.170696 +/-     3.737046 s,  697 calls,  14058.974789 s total
PROFILER:              EdensityAndVscloc     8.772708 +/-     5.480665 s,  695 calls,   6097.032079 s total
PROFILER:                     EnlAndGrad     0.001966 +/-     0.002918 s, 3775 calls,      7.420584 s total
PROFILER:            ExCorrCommunication     0.117426 +/-     0.142413 s, 4447 calls,    522.191877 s total
PROFILER:               ExCorrFunctional     0.027449 +/-     0.005617 s,  771 calls,     21.162800 s total
PROFILER:                    ExCorrTotal     1.002896 +/-     0.204467 s,  771 calls,    773.233020 s total
PROFILER:                   Idag_DiagV_I    35.845085 +/-    12.535591 s,  472 calls,  16918.880293 s total
PROFILER:                    initWeights     2.373801 +/-     0.000000 s,    1 calls,      2.373801 s total
PROFILER:                    inv(matrix)     0.003169 +/-     0.002118 s,  620 calls,      1.964892 s total
PROFILER:            matrix::diagonalize     0.012245 +/-     0.007767 s, 1134 calls,     13.885841 s total
PROFILER:                    matrix::set     0.000003 +/-     0.000003 s, 72086 calls,      0.186410 s total
PROFILER:            orthoMatrix(matrix)     0.002593 +/-     0.001349 s,  702 calls,      1.820206 s total
PROFILER:     RadialFunctionR::transform     0.027239 +/-     0.201442 s,  151 calls,      4.113048 s total
PROFILER:                    reduceKmesh     0.000000 +/-     0.000000 s,    1 calls,      0.000000 s total
PROFILER:   VanDerWaalsD3::energyAndGrad     0.047332 +/-     0.003383 s,   51 calls,      2.413934 s total
PROFILER:               WavefunctionDrag    36.629462 +/-     1.571815 s,   25 calls,    915.736544 s total
PROFILER:                            Y*M     0.851535 +/-     1.062195 s, 12533 calls,  10672.291461 s total
PROFILER:                          Y1^Y2     0.896477 +/-     1.092418 s, 9293 calls,   8330.962749 s total

MEMUSAGE:                   ColumnBundle     1.372431 GB
MEMUSAGE:        complexScalarFieldTilde     0.074158 GB
MEMUSAGE:                    IndexArrays     0.023178 GB
MEMUSAGE:                         matrix     0.020883 GB
MEMUSAGE:                           misc     0.051230 GB
MEMUSAGE:                    ScalarField     0.395508 GB
MEMUSAGE:               ScalarFieldTilde     0.262436 GB
MEMUSAGE:                          Total     1.689912 GB
