
*************** JDFTx 1.7.0 (git hash 5f12716a) ***************

Start date and time: Wed Nov  9 18:58:37 2022
Executable /home/nisi6161/jdftx_alpine/build/jdftx with command-line: -i in
Running on hosts (process indices):  c3cpu-c11-u7-4.rc.int.colorado.edu (0-17)
Divided in process groups (process indices):  0 (0)  1 (1)  2 (2)  3 (3)  4 (4)  5 (5)  6 (6)  7 (7)  8 (8)  9 (9)  10 (10)  11 (11)  12 (12)  13 (13)  14 (14)  15 (15)  16 (16)  17 (17)
Resource initialization completed at t[s]:      0.00
Run totals: 18 processes, 48 threads, 0 GPUs


Input parsed successfully to the following command list (including defaults):

basis kpoint-dependent
converge-empty-states yes
coords-type Cartesian
core-overlap-check none
coulomb-interaction Periodic
davidson-band-ratio 1.1
density-of-states Etol 1.000000e-06 Esigma 1.000000e-03 \
		Complete \
	Total \
	OrthoOrbital C 1   s \
	OrthoOrbital C 1   p \
	OrthoOrbital C 1   px \
	OrthoOrbital C 1   py \
	OrthoOrbital C 1   pz \
	OrthoOrbital C 2   s \
	OrthoOrbital C 2   p \
	OrthoOrbital C 2   px \
	OrthoOrbital C 2   py \
	OrthoOrbital C 2   pz \
	OrthoOrbital C 3   s \
	OrthoOrbital C 3   p \
	OrthoOrbital C 3   px \
	OrthoOrbital C 3   py \
	OrthoOrbital C 3   pz \
	OrthoOrbital C 4   s \
	OrthoOrbital C 4   p \
	OrthoOrbital C 4   px \
	OrthoOrbital C 4   py \
	OrthoOrbital C 4   pz \
	OrthoOrbital C 5   s \
	OrthoOrbital C 5   p \
	OrthoOrbital C 5   px \
	OrthoOrbital C 5   py \
	OrthoOrbital C 5   pz \
	OrthoOrbital C 6   s \
	OrthoOrbital C 6   p \
	OrthoOrbital C 6   px \
	OrthoOrbital C 6   py \
	OrthoOrbital C 6   pz \
	OrthoOrbital C 7   s \
	OrthoOrbital C 7   p \
	OrthoOrbital C 7   px \
	OrthoOrbital C 7   py \
	OrthoOrbital C 7   pz \
	OrthoOrbital C 8   s \
	OrthoOrbital C 8   p \
	OrthoOrbital C 8   px \
	OrthoOrbital C 8   py \
	OrthoOrbital C 8   pz \
	OrthoOrbital C 9   s \
	OrthoOrbital C 9   p \
	OrthoOrbital C 9   px \
	OrthoOrbital C 9   py \
	OrthoOrbital C 9   pz \
	OrthoOrbital C 10   s \
	OrthoOrbital C 10   p \
	OrthoOrbital C 10   px \
	OrthoOrbital C 10   py \
	OrthoOrbital C 10   pz \
	OrthoOrbital C 11   s \
	OrthoOrbital C 11   p \
	OrthoOrbital C 11   px \
	OrthoOrbital C 11   py \
	OrthoOrbital C 11   pz \
	OrthoOrbital C 12   s \
	OrthoOrbital C 12   p \
	OrthoOrbital C 12   px \
	OrthoOrbital C 12   py \
	OrthoOrbital C 12   pz \
	OrthoOrbital C 13   s \
	OrthoOrbital C 13   p \
	OrthoOrbital C 13   px \
	OrthoOrbital C 13   py \
	OrthoOrbital C 13   pz \
	OrthoOrbital C 14   s \
	OrthoOrbital C 14   p \
	OrthoOrbital C 14   px \
	OrthoOrbital C 14   py \
	OrthoOrbital C 14   pz \
	OrthoOrbital C 15   s \
	OrthoOrbital C 15   p \
	OrthoOrbital C 15   px \
	OrthoOrbital C 15   py \
	OrthoOrbital C 15   pz \
	OrthoOrbital C 16   s \
	OrthoOrbital C 16   p \
	OrthoOrbital C 16   px \
	OrthoOrbital C 16   py \
	OrthoOrbital C 16   pz \
	OrthoOrbital C 17   s \
	OrthoOrbital C 17   p \
	OrthoOrbital C 17   px \
	OrthoOrbital C 17   py \
	OrthoOrbital C 17   pz \
	OrthoOrbital C 18   s \
	OrthoOrbital C 18   p \
	OrthoOrbital C 18   px \
	OrthoOrbital C 18   py \
	OrthoOrbital C 18   pz \
	OrthoOrbital C 19   s \
	OrthoOrbital C 19   p \
	OrthoOrbital C 19   px \
	OrthoOrbital C 19   py \
	OrthoOrbital C 19   pz \
	OrthoOrbital C 20   s \
	OrthoOrbital C 20   p \
	OrthoOrbital C 20   px \
	OrthoOrbital C 20   py \
	OrthoOrbital C 20   pz \
	OrthoOrbital C 21   s \
	OrthoOrbital C 21   p \
	OrthoOrbital C 21   px \
	OrthoOrbital C 21   py \
	OrthoOrbital C 21   pz \
	OrthoOrbital C 22   s \
	OrthoOrbital C 22   p \
	OrthoOrbital C 22   px \
	OrthoOrbital C 22   py \
	OrthoOrbital C 22   pz \
	OrthoOrbital C 23   s \
	OrthoOrbital C 23   p \
	OrthoOrbital C 23   px \
	OrthoOrbital C 23   py \
	OrthoOrbital C 23   pz \
	OrthoOrbital C 24   s \
	OrthoOrbital C 24   p \
	OrthoOrbital C 24   px \
	OrthoOrbital C 24   py \
	OrthoOrbital C 24   pz \
	OrthoOrbital C 25   s \
	OrthoOrbital C 25   p \
	OrthoOrbital C 25   px \
	OrthoOrbital C 25   py \
	OrthoOrbital C 25   pz \
	OrthoOrbital C 26   s \
	OrthoOrbital C 26   p \
	OrthoOrbital C 26   px \
	OrthoOrbital C 26   py \
	OrthoOrbital C 26   pz \
	OrthoOrbital C 27   s \
	OrthoOrbital C 27   p \
	OrthoOrbital C 27   px \
	OrthoOrbital C 27   py \
	OrthoOrbital C 27   pz \
	OrthoOrbital C 28   s \
	OrthoOrbital C 28   p \
	OrthoOrbital C 28   px \
	OrthoOrbital C 28   py \
	OrthoOrbital C 28   pz \
	OrthoOrbital C 29   s \
	OrthoOrbital C 29   p \
	OrthoOrbital C 29   px \
	OrthoOrbital C 29   py \
	OrthoOrbital C 29   pz \
	OrthoOrbital C 30   s \
	OrthoOrbital C 30   p \
	OrthoOrbital C 30   px \
	OrthoOrbital C 30   py \
	OrthoOrbital C 30   pz \
	OrthoOrbital C 31   s \
	OrthoOrbital C 31   p \
	OrthoOrbital C 31   px \
	OrthoOrbital C 31   py \
	OrthoOrbital C 31   pz \
	OrthoOrbital C 32   s \
	OrthoOrbital C 32   p \
	OrthoOrbital C 32   px \
	OrthoOrbital C 32   py \
	OrthoOrbital C 32   pz \
	OrthoOrbital C 33   s \
	OrthoOrbital C 33   p \
	OrthoOrbital C 33   px \
	OrthoOrbital C 33   py \
	OrthoOrbital C 33   pz \
	OrthoOrbital C 34   s \
	OrthoOrbital C 34   p \
	OrthoOrbital C 34   px \
	OrthoOrbital C 34   py \
	OrthoOrbital C 34   pz \
	OrthoOrbital C 35   s \
	OrthoOrbital C 35   p \
	OrthoOrbital C 35   px \
	OrthoOrbital C 35   py \
	OrthoOrbital C 35   pz \
	OrthoOrbital C 36   s \
	OrthoOrbital C 36   p \
	OrthoOrbital C 36   px \
	OrthoOrbital C 36   py \
	OrthoOrbital C 36   pz \
	OrthoOrbital C 37   s \
	OrthoOrbital C 37   p \
	OrthoOrbital C 37   px \
	OrthoOrbital C 37   py \
	OrthoOrbital C 37   pz \
	OrthoOrbital C 38   s \
	OrthoOrbital C 38   p \
	OrthoOrbital C 38   px \
	OrthoOrbital C 38   py \
	OrthoOrbital C 38   pz \
	OrthoOrbital C 39   s \
	OrthoOrbital C 39   p \
	OrthoOrbital C 39   px \
	OrthoOrbital C 39   py \
	OrthoOrbital C 39   pz \
	OrthoOrbital C 40   s \
	OrthoOrbital C 40   p \
	OrthoOrbital C 40   px \
	OrthoOrbital C 40   py \
	OrthoOrbital C 40   pz \
	OrthoOrbital C 41   s \
	OrthoOrbital C 41   p \
	OrthoOrbital C 41   px \
	OrthoOrbital C 41   py \
	OrthoOrbital C 41   pz \
	OrthoOrbital C 42   s \
	OrthoOrbital C 42   p \
	OrthoOrbital C 42   px \
	OrthoOrbital C 42   py \
	OrthoOrbital C 42   pz \
	OrthoOrbital C 43   s \
	OrthoOrbital C 43   p \
	OrthoOrbital C 43   px \
	OrthoOrbital C 43   py \
	OrthoOrbital C 43   pz \
	OrthoOrbital C 44   s \
	OrthoOrbital C 44   p \
	OrthoOrbital C 44   px \
	OrthoOrbital C 44   py \
	OrthoOrbital C 44   pz \
	OrthoOrbital C 45   s \
	OrthoOrbital C 45   p \
	OrthoOrbital C 45   px \
	OrthoOrbital C 45   py \
	OrthoOrbital C 45   pz \
	OrthoOrbital N 1   s \
	OrthoOrbital N 1   p \
	OrthoOrbital N 1   px \
	OrthoOrbital N 1   py \
	OrthoOrbital N 1   pz \
	OrthoOrbital N 2   s \
	OrthoOrbital N 2   p \
	OrthoOrbital N 2   px \
	OrthoOrbital N 2   py \
	OrthoOrbital N 2   pz \
	OrthoOrbital N 3   s \
	OrthoOrbital N 3   p \
	OrthoOrbital N 3   px \
	OrthoOrbital N 3   py \
	OrthoOrbital N 3   pz \
	OrthoOrbital N 4   s \
	OrthoOrbital N 4   p \
	OrthoOrbital N 4   px \
	OrthoOrbital N 4   py \
	OrthoOrbital N 4   pz \
	OrthoOrbital Ti 1   s \
	OrthoOrbital Ti 1   p \
	OrthoOrbital Ti 1   px \
	OrthoOrbital Ti 1   py \
	OrthoOrbital Ti 1   pz \
	OrthoOrbital Ti 1   d \
	OrthoOrbital Ti 1   dxy \
	OrthoOrbital Ti 1   dyz \
	OrthoOrbital Ti 1   dz2 \
	OrthoOrbital Ti 1   dxz \
	OrthoOrbital Ti 1   dx2-y2 \
	OrthoOrbital O 1   s \
	OrthoOrbital O 1   p \
	OrthoOrbital O 1   px \
	OrthoOrbital O 1   py \
	OrthoOrbital O 1   pz \
	OrthoOrbital O 2   s \
	OrthoOrbital O 2   p \
	OrthoOrbital O 2   px \
	OrthoOrbital O 2   py \
	OrthoOrbital O 2   pz \
	OrthoOrbital H 1   s
dump End ElecDensity KEdensity BandEigs EigStats RhoAtom DOS Kpoints
dump Ionic State IonicPositions Lattice EigStats Ecomponents
dump 
dump 
dump 
dump 
dump 
dump 
dump 
dump 
dump-name jdft.$VAR
elec-cutoff 20
elec-eigen-algo Davidson
elec-ex-corr gga-PBE
elec-initial-magnetization 0.000000 no
elec-n-bands 135
elec-smearing Fermi 0.001
electronic-minimize  \
	dirUpdateScheme      FletcherReeves \
	linminMethod         DirUpdateRecommended \
	nIterations          100 \
	history              15 \
	knormThreshold       0 \
	energyDiffThreshold  1e-07 \
	nEnergyDiff          2 \
	alphaTstart          1 \
	alphaTmin            1e-10 \
	updateTestStepSize   yes \
	alphaTreduceFactor   0.1 \
	alphaTincreaseFactor 3 \
	nAlphaAdjustMax      3 \
	wolfeEnergy          0.0001 \
	wolfeGradient        0.9 \
	fdTest               no
exchange-regularization WignerSeitzTruncated
fluid LinearPCM 298.000000 1.013250
fluid-anion F- 0.5 MeanFieldLJ \
	epsBulk 1 \
	pMol 0 \
	epsInf 1 \
	Pvap 0 \
	sigmaBulk 0 \
	Rvdw 2.24877 \
	Res 0 \
	tauNuc 343133
fluid-cation Na+ 0.5 MeanFieldLJ \
	epsBulk 1 \
	pMol 0 \
	epsInf 1 \
	Pvap 0 \
	sigmaBulk 0 \
	Rvdw 2.19208 \
	Res 0 \
	tauNuc 343133
fluid-ex-corr lda-TF lda-PZ
fluid-gummel-loop 10 1.000000e-05
fluid-minimize  \
	dirUpdateScheme      PolakRibiere \
	linminMethod         DirUpdateRecommended \
	nIterations          400 \
	history              15 \
	knormThreshold       1e-11 \
	energyDiffThreshold  0 \
	nEnergyDiff          2 \
	alphaTstart          1 \
	alphaTmin            1e-10 \
	updateTestStepSize   yes \
	alphaTreduceFactor   0.1 \
	alphaTincreaseFactor 3 \
	nAlphaAdjustMax      6 \
	wolfeEnergy          0.0001 \
	wolfeGradient        0.9 \
	fdTest               no
fluid-solvent H2O 55.338 ScalarEOS \
	epsBulk 78.4 \
	pMol 0.92466 \
	epsInf 1.77 \
	Pvap 1.06736e-10 \
	sigmaBulk 4.62e-05 \
	Rvdw 2.61727 \
	Res 1.42 \
	tauNuc 343133 \
	poleEl 15 7 1
forces-output-coords Positions
ion C -11.696494000000001  19.934096000000004  43.251728000000007 0
ion C  21.091164999999997   3.959421000000001   0.012717000000000 0
ion C  18.745422000000005   7.963872000000002   0.024959000000000 0
ion C  -7.005095000000002  11.962483000000004   0.027598000000000 0
ion C  -9.334109000000000  15.973091000000000   0.029717000000000 0
ion C   4.725273000000001   0.101008000000000   0.031145000000000 0
ion C   2.337218000000000   4.102653000000001   0.071416000000000 0
ion C  -0.064260000000000   7.943405000000001   0.062462000000000 0
ion C  -2.388412000000001  11.955154000000002   0.003071000000000 0
ion C  -4.685588000000001  15.980511000000002  43.249003000000009 0
ion C  -2.320622000000002  19.946981000000005  43.222659000000007 0
ion C   7.123104999999999   4.117141000000001   0.102604000000000 0
ion C   0.004861000000000  15.895949000000003  43.203713000000008 0
ion C   2.386805000000001  19.849385000000002  43.219459000000008 0
ion C  11.800613000000000   3.947699000000001   0.011982000000000 0
ion C   9.511600000000000   7.932841000000002   0.131672000000000 0
ion C   4.710763999999999  15.753562000000004   0.044251000000000 0
ion C   7.038810000000003  19.852158000000003  43.244504000000006 0
ion C  16.445845000000002   3.933888000000001  43.256010000000011 0
ion C  14.136672000000001   7.956482000000002   0.035081000000000 0
ion C  11.811756000000001  11.956261000000001   0.078251000000000 0
ion C   9.407199000000000  15.884694000000003   0.032399000000000 0
ion C   0.026184000000000   2.676946000000000   0.008738000000000 0
ion C  -2.375955000000000   6.615576000000002   0.036854000000000 0
ion C  -4.697673999999999  10.617252000000001   0.019292000000000 0
ion C  -7.007983000000002  14.638988000000005   0.022364000000000 0
ion C  -9.334122999999998  18.660212999999999   0.017043000000000 0
ion C   4.727333000000000   2.818875000000000   0.082144000000000 0
ion C  -0.069155000000000  10.639819000000001   0.029890000000000 0
ion C  -2.363009000000000  14.626254000000003  43.230489000000006 0
ion C  -4.681405999999999  18.666357999999999  43.251728000000007 0
ion C   9.429537000000002   2.686640000000001   0.007656000000000 0
ion C   2.312199000000000  14.475344000000002   0.016048000000000 0
ion C   0.021797000000001  18.575742000000002  43.198436000000008 0
ion C  14.124071000000001   2.592465000000000  43.241303000000009 0
ion C  11.827527999999999   6.617783000000001   0.049875000000000 0
ion C   9.503332000000000  10.625741000000003   0.141924000000000 0
ion C   7.096182000000001  14.451904000000004   0.099143000000000 0
ion C   4.714089000000001  18.471430000000002  43.246623000000007 0
ion C  18.771691000000001   2.598388000000000  43.250603000000005 0
ion C  16.442945000000002   6.610972000000001   0.015832000000000 0
ion C  14.128996000000003  10.626939000000002   0.048966000000000 0
ion C  11.782118000000001  14.628975000000002   0.052556000000000 0
ion C   9.396932000000001  18.571149000000002  43.247964000000010 0
ion C   4.410681000000000  10.238436000000002   5.420665000000001 1
ion N   2.207539000000002  11.889573000000000   0.103729000000000 0
ion N   7.209634000000000  11.847986000000002   0.243663000000000 0
ion N   2.226602999999999   6.705018000000002   0.144173000000000 0
ion N   7.234972000000001   6.703856000000001   0.232330000000000 0
ion Ti   4.630751000000000   9.303528000000000   1.626697000000000 0
ion O   3.905807000000000  11.028920000000001   7.703733000000001 1
ion O   6.331569000000000   8.844488000000002   5.065055000000001 1
ion H   2.362247000000000  12.096662000000002   7.706545000000001 1
ion-species /projects/musgravc/apps/jdftx-1.6.0/build/pseudopotentials/GBRV_v1.5/$ID_pbe_v1.uspp
ion-species /projects/musgravc/apps/jdftx-1.6.0/build/pseudopotentials/GBRV_v1.5/$ID_pbe_v1.2.uspp
ion-species /projects/musgravc/apps/jdftx-1.6.0/build/pseudopotentials/GBRV_v1.5/$ID_pbe_v1.4.uspp
ion-species /projects/musgravc/apps/jdftx-1.6.0/build/pseudopotentials/GBRV_v1.5/$ID_pbe_v1.5.uspp
ion-width Ecut
ionic-minimize  \
	dirUpdateScheme      L-BFGS \
	linminMethod         DirUpdateRecommended \
	nIterations          100 \
	history              15 \
	knormThreshold       0.0001 \
	energyDiffThreshold  0.0001 \
	nEnergyDiff          2 \
	alphaTstart          1 \
	alphaTmin            1e-10 \
	updateTestStepSize   yes \
	alphaTreduceFactor   0.1 \
	alphaTincreaseFactor 3 \
	nAlphaAdjustMax      3 \
	wolfeEnergy          0.0001 \
	wolfeGradient        0.9 \
	fdTest               no
kpoint   0.000000000000   0.000000000000   0.000000000000  1.00000000000000
kpoint-folding 3 3 1 
latt-move-scale 0 0 0
latt-scale 1 1 1 
lattice  \
	  23.436261999999999  -11.733459000000000    0.000000000000000  \
	   0.017994000000000   19.941849000000001    0.000000000000000  \
	   0.000000000000000    0.000000000000000   43.256312999999999 
lattice-minimize  \
	dirUpdateScheme      L-BFGS \
	linminMethod         DirUpdateRecommended \
	nIterations          0 \
	history              15 \
	knormThreshold       0 \
	energyDiffThreshold  1e-06 \
	nEnergyDiff          2 \
	alphaTstart          1 \
	alphaTmin            1e-10 \
	updateTestStepSize   yes \
	alphaTreduceFactor   0.1 \
	alphaTincreaseFactor 3 \
	nAlphaAdjustMax      3 \
	wolfeEnergy          0.0001 \
	wolfeGradient        0.9 \
	fdTest               no
lcao-params 30 1e-06 0.001
pcm-variant CANDLE
spintype z-spin
subspace-rotation-factor 1 yes
symmetries none
symmetry-threshold 0.0001
target-mu -0.1602 no

van-der-waals D3
vibrations \
	dr 0.01\
	centralDiff no\
	useConstraints yes\
	translationSym yes\
	rotationSym no\
	omegaMin 0.0002\
	T 298\
	omegaResolution 0.0001


Applied RMS atom displacement 0 bohrs to make symmetries exact.
Applied RMS atom displacement 0 bohrs to make symmetries exact.

---------- Initializing the Grid ----------
R = 
[      23.4363     -11.7335            0  ]
[     0.017994      19.9418            0  ]
[            0            0      43.2563  ]
unit cell volume = 20225.5
G =
[   0.267976   0.157673         -0  ]
[ -0.000241801   0.314933          0  ]
[          0         -0   0.145255  ]
Minimum fftbox size, Smin = [  96  96  176  ]
Chosen fftbox size, S = [  96  96  180  ]

---------- Exchange Correlation functional ----------
Initalized PBE GGA exchange.
Initalized PBE GGA correlation.

---------- Setting up pseudopotentials ----------
Width of ionic core gaussian charges (only for fluid interactions / plotting) set to 0.397384

Reading pseudopotential file '/projects/musgravc/apps/jdftx-1.6.0/build/pseudopotentials/GBRV_v1.5/c_pbe_v1.2.uspp':
  Title: C.  Created by USPP 7.3.6 on 3-2-2014
  Reference state energy: -5.406344.  4 valence electrons in orbitals:
    |200>  occupation: 2  eigenvalue: -0.504890
    |210>  occupation: 2  eigenvalue: -0.194356
  lMax: 1  lLocal: 2  QijEcut: 5
  4 projectors sampled on a log grid with 503 points:
    l: 0  eig: -0.504890  rCut: 1.3
    l: 0  eig: 0.000000  rCut: 1.3
    l: 1  eig: -0.194357  rCut: 1.3
    l: 1  eig: 0.000000  rCut: 1.3
  Partial core density with radius 1.1
  Transforming core density to a uniform radial grid of dG=0.02 with 1464 points.
  Transforming local potential to a uniform radial grid of dG=0.02 with 1464 points.
  Transforming nonlocal projectors to a uniform radial grid of dG=0.02 with 432 points.
  Transforming density augmentations to a uniform radial grid of dG=0.02 with 1464 points.
  Transforming atomic orbitals to a uniform radial grid of dG=0.02 with 432 points.
  Core radius for overlap checks: 1.30 bohrs.

Reading pseudopotential file '/projects/musgravc/apps/jdftx-1.6.0/build/pseudopotentials/GBRV_v1.5/n_pbe_v1.2.uspp':
  Title: N.  Created by USPP 7.3.6 on 3-2-2014
  Reference state energy: -9.763716.  5 valence electrons in orbitals:
    |200>  occupation: 2  eigenvalue: -0.681964
    |210>  occupation: 3  eigenvalue: -0.260726
  lMax: 1  lLocal: 2  QijEcut: 6
  4 projectors sampled on a log grid with 491 points:
    l: 0  eig: -0.681964  rCut: 1.15
    l: 0  eig: 0.000000  rCut: 1.15
    l: 1  eig: -0.260729  rCut: 1.2
    l: 1  eig: 0.500000  rCut: 1.2
  Partial core density with radius 0.8
  Transforming core density to a uniform radial grid of dG=0.02 with 1464 points.
  Transforming local potential to a uniform radial grid of dG=0.02 with 1464 points.
  Transforming nonlocal projectors to a uniform radial grid of dG=0.02 with 432 points.
  Transforming density augmentations to a uniform radial grid of dG=0.02 with 1464 points.
  Transforming atomic orbitals to a uniform radial grid of dG=0.02 with 432 points.
  Core radius for overlap checks: 1.20 bohrs.

Reading pseudopotential file '/projects/musgravc/apps/jdftx-1.6.0/build/pseudopotentials/GBRV_v1.5/ti_pbe_v1.4.uspp':
  Title: Ti.  Created by USPP 7.3.6 on 31-3-15
  Reference state energy: -59.020943.  12 valence electrons in orbitals:
    |300>  occupation: 2  eigenvalue: -2.777623
    |310>  occupation: 6  eigenvalue: -1.894596
    |400>  occupation: 2  eigenvalue: -0.438610
    |320>  occupation: 1  eigenvalue: -0.583119
  lMax: 2  lLocal: 3  QijEcut: 6
  6 projectors sampled on a log grid with 597 points:
    l: 0  eig: -2.777624  rCut: 1.8
    l: 0  eig: -0.438611  rCut: 1.8
    l: 1  eig: -1.894596  rCut: 1.8
    l: 1  eig: 0.500000  rCut: 1.8
    l: 2  eig: -0.583118  rCut: 1.8
    l: 2  eig: 0.150000  rCut: 1.8
  Partial core density with radius 0.8
  Transforming core density to a uniform radial grid of dG=0.02 with 1464 points.
  Transforming local potential to a uniform radial grid of dG=0.02 with 1464 points.
  Transforming nonlocal projectors to a uniform radial grid of dG=0.02 with 432 points.
  Transforming density augmentations to a uniform radial grid of dG=0.02 with 1464 points.
  Transforming atomic orbitals to a uniform radial grid of dG=0.02 with 432 points.
  Core radius for overlap checks: 1.80 bohrs.

Reading pseudopotential file '/projects/musgravc/apps/jdftx-1.6.0/build/pseudopotentials/GBRV_v1.5/o_pbe_v1.2.uspp':
  Title: O.  Created by USPP 7.3.6 on 3-2-2014
  Reference state energy: -15.894388.  6 valence electrons in orbitals:
    |200>  occupation: 2  eigenvalue: -0.878823
    |210>  occupation: 4  eigenvalue: -0.332131
  lMax: 2  lLocal: 2  QijEcut: 6
  5 projectors sampled on a log grid with 511 points:
    l: 0  eig: -0.878823  rCut: 1.25
    l: 0  eig: 0.000000  rCut: 1.25
    l: 1  eig: -0.332132  rCut: 1.25
    l: 1  eig: 0.000000  rCut: 1.25
    l: 2  eig: 1.000000  rCut: 1.25
  Partial core density with radius 0.7
  Transforming core density to a uniform radial grid of dG=0.02 with 1464 points.
  Transforming local potential to a uniform radial grid of dG=0.02 with 1464 points.
  Transforming nonlocal projectors to a uniform radial grid of dG=0.02 with 432 points.
  Transforming density augmentations to a uniform radial grid of dG=0.02 with 1464 points.
  Transforming atomic orbitals to a uniform radial grid of dG=0.02 with 432 points.
  Core radius for overlap checks: 1.25 bohrs.

Reading pseudopotential file '/projects/musgravc/apps/jdftx-1.6.0/build/pseudopotentials/GBRV_v1.5/h_pbe_v1.4.uspp':
  Title: H.  Created by USPP 7.3.6 on 2-4-15
  Reference state energy: -0.458849.  1 valence electrons in orbitals:
    |100>  occupation: 1  eigenvalue: -0.238595
  lMax: 0  lLocal: 1  QijEcut: 6
  2 projectors sampled on a log grid with 395 points:
    l: 0  eig: -0.238595  rCut: 1.2
    l: 0  eig: 1.000000  rCut: 1.2
  Transforming local potential to a uniform radial grid of dG=0.02 with 1464 points.
  Transforming nonlocal projectors to a uniform radial grid of dG=0.02 with 432 points.
  Transforming density augmentations to a uniform radial grid of dG=0.02 with 1464 points.
  Transforming atomic orbitals to a uniform radial grid of dG=0.02 with 432 points.
  Core radius for overlap checks: 1.20 bohrs.

Initialized 5 species with 53 total atoms.

Folded 1 k-points by 3x3x1 to 9 k-points.

---------- Setting up k-points, bands, fillings ----------
No reducable k-points. 
Computing the number of bands and number of electrons
Calculating initial fillings.
nElectrons: 225.000000   nBands: 135   nStates: 18

----- Setting up reduced wavefunction bases (one per k-point) -----
average nbasis = 86412.556 , ideal nbasis = 86404.907

----- Initializing Supercell corresponding to k-point mesh -----
Lattice vector linear combinations in supercell:
[   3   0   0  ]
[   0   3   0  ]
[   0   0   1  ]
Supercell lattice vectors:
[  70.3088  -35.2004  0  ]
[  0.053982  59.8255  0  ]
[  0  0  43.2563  ]

Initializing DFT-D3 calculator:
	Parameters set for gga-PBE functional
	s6:  1.000  s_r6:  1.217
	s8:  0.722  s_r8:  1.000
	Per-atom parameters loaded for:
	 C:  sqrtQ[a0]:  3.105  Rcov[a0]:  1.417  CN: [ 0.00 0.99 2.00 3.00 3.98 ]
	 N:  sqrtQ[a0]:  2.712  Rcov[a0]:  1.342  CN: [ 0.00 0.99 2.01 2.99 ]
	Ti:  sqrtQ[a0]:  6.288  Rcov[a0]:  2.305  CN: [ 0.00 1.83 3.87 ]
	 O:  sqrtQ[a0]:  2.594  Rcov[a0]:  1.191  CN: [ 0.00 0.99 1.99 ]
	 H:  sqrtQ[a0]:  2.007  Rcov[a0]:  0.605  CN: [ 0.91 0.00 ]

Initializing DFT-D2 calculator for fluid / solvation:
	 C:  C6:   30.35 Eh-a0^6  R0: 2.744 a0
	 N:  C6:   21.33 Eh-a0^6  R0: 2.640 a0
	Ti:  C6:  187.33 Eh-a0^6  R0: 2.952 a0
	 O:  C6:   12.14 Eh-a0^6  R0: 2.536 a0
	 H:  C6:    2.43 Eh-a0^6  R0: 1.892 a0

---------- Setting up ewald sum ----------
Optimum gaussian width for ewald sums = 5.608291 bohr.
Real space sum over 567 unit cells with max indices [  4  4  3  ]
Reciprocal space sum over 7803 terms with max indices [  8  8  13  ]

Computing DFT-D3 correction:
# coordination-number C 3.301 3.321 3.333 3.331 3.313 3.291 3.327 3.658 3.328 3.314 3.302 3.323 3.306 3.302 3.324 3.571 3.270 3.301 3.319 3.334 3.326 3.301 3.302 3.325 3.333 3.319 3.301 3.268 3.656 3.324 3.301 3.305 3.333 3.303 3.314 3.329 3.580 3.324 3.291 3.313 3.331 3.333 3.321 3.300 3.013
# coordination-number N 3.183 3.176 3.178 3.177
# coordination-number Ti 7.546
# coordination-number O 2.022 1.994
# coordination-number H 1.008
# diagonal-C6 C 24.28 24.08 23.94 23.96 24.16 24.37 24.00 19.66 24.00 24.15 24.26 24.05 24.23 24.26 24.04 20.64 24.55 24.28 24.09 23.94 24.02 24.27 24.27 24.02 23.94 24.09 24.27 24.57 19.68 24.04 24.27 24.24 23.94 24.25 24.15 23.98 20.52 24.04 24.36 24.16 23.96 23.94 24.08 24.28 25.65
# diagonal-C6 N 15.60 15.60 15.60 15.60
# diagonal-C6 Ti 321.59
# diagonal-C6 O 10.40 10.41
# diagonal-C6 H 3.09
EvdW_6 =   -0.040370
EvdW_8 =   -0.032260

---------- Allocating electronic variables ----------
Initializing wave functions:  linear combination of atomic orbitals
C pseudo-atom occupations:   s ( 2 )  p ( 2 )
N pseudo-atom occupations:   s ( 2 )  p ( 3 )
Ti pseudo-atom occupations:   s ( 2 0 )  p ( 6 )  d ( 4 )
O pseudo-atom occupations:   s ( 2 )  p ( 4 )
H pseudo-atom occupations:   s ( 1 )
	FillingsUpdate:  mu: -0.160200000  nElectrons: 225.000000  magneticMoment: [ Abs: 0.00437  Tot: +0.00022 ]
LCAOMinimize: Iter:   0  G: -345.9692665658552642  |grad|_K:  1.024e-02  alpha:  1.000e+00
	FillingsUpdate:  mu: -0.160200000  nElectrons: 225.000000  magneticMoment: [ Abs: 0.00428  Tot: -0.00006 ]
LCAOMinimize: Iter:   1  G: -346.9243836753315691  |grad|_K:  2.083e-03  alpha:  2.938e-01  linmin: -3.369e-03  cgtest: -3.122e+00  t[s]:    281.85
	FillingsUpdate:  mu: -0.160200000  nElectrons: 225.000000  magneticMoment: [ Abs: 0.00428  Tot: -0.00006 ]
LCAOMinimize: Iter:   2  G: -346.9566518538288733  |grad|_K:  2.110e-03  alpha:  8.357e-03  linmin: -8.856e-02  cgtest:  9.711e-01  t[s]:    394.54
LCAOMinimize: 	Wrong curvature in test step, increasing alphaT to 2.507102e-02.
	FillingsUpdate:  mu: -0.160200000  nElectrons: 225.000000  magneticMoment: [ Abs: 0.00428  Tot: -0.00007 ]
LCAOMinimize: Iter:   3  G: -346.9902698467461732  |grad|_K:  2.164e-03  alpha: -1.407e-01  linmin: -1.352e-01  cgtest:  9.524e-01  t[s]:    505.09
	FillingsUpdate:  mu: -0.160200000  nElectrons: 225.000000  magneticMoment: [ Abs: 0.00496  Tot: +0.00087 ]
LCAOMinimize: Iter:   4  G: -347.8456131497255228  |grad|_K:  3.631e-03  alpha:  3.644e-02  linmin: -1.082e-01  cgtest:  4.404e-01  t[s]:    617.75
	FillingsUpdate:  mu: -0.160200000  nElectrons: 225.000000  magneticMoment: [ Abs: 0.00427  Tot: +0.00002 ]
LCAOMinimize: Iter:   5  G: -348.3804699966779026  |grad|_K:  1.281e-03  alpha:  2.660e-02  linmin: -1.569e-01  cgtest:  5.536e-01  t[s]:    730.74
LCAOMinimize: Encountered beta<0, resetting CG.
LCAOMinimize: 	Wrong curvature in test step, increasing alphaT to 7.979141e-02.
	FillingsUpdate:  mu: -0.160200000  nElectrons: 225.000000  magneticMoment: [ Abs: 0.00428  Tot: +0.00002 ]
LCAOMinimize: Iter:   6  G: -348.4177253924869433  |grad|_K:  1.255e-03  alpha: -8.428e-01  linmin: -2.362e-01  cgtest:  9.552e-01  t[s]:    841.45
	FillingsUpdate:  mu: -0.160200000  nElectrons: 225.000000  magneticMoment: [ Abs: 0.00428  Tot: +0.00002 ]
LCAOMinimize: Iter:   7  G: -348.4705885027010481  |grad|_K:  1.216e-03  alpha:  3.807e-02  linmin: -2.493e-01  cgtest:  9.323e-01  t[s]:    954.74
LCAOMinimize: 	Wrong curvature in test step, increasing alphaT to 1.142198e-01.
	FillingsUpdate:  mu: -0.160200000  nElectrons: 225.000000  magneticMoment: [ Abs: 0.00428  Tot: +0.00002 ]
LCAOMinimize: Iter:   8  G: -348.5208454407775776  |grad|_K:  1.171e-03  alpha: -8.313e-01  linmin: -2.602e-01  cgtest:  9.311e-01  t[s]:   1065.46
	FillingsUpdate:  mu: -0.160200000  nElectrons: 225.000000  magneticMoment: [ Abs: 0.00429  Tot: +0.00002 ]
LCAOMinimize: Iter:   9  G: -348.5628843682648039  |grad|_K:  1.122e-03  alpha:  3.467e-02  linmin: -2.689e-01  cgtest:  9.386e-01  t[s]:   1178.51
LCAOMinimize: 	Wrong curvature in test step, increasing alphaT to 1.040074e-01.
	FillingsUpdate:  mu: -0.160200000  nElectrons: 225.000000  magneticMoment: [ Abs: 0.00429  Tot: +0.00002 ]
LCAOMinimize: Iter:  10  G: -348.6007877199313612  |grad|_K:  1.066e-03  alpha: -1.558e+00  linmin: -2.769e-01  cgtest:  9.413e-01  t[s]:   1289.03
	FillingsUpdate:  mu: -0.160200000  nElectrons: 225.000000  magneticMoment: [ Abs: 0.00429  Tot: +0.00002 ]
LCAOMinimize: Iter:  11  G: -348.6300089883373516  |grad|_K:  1.010e-03  alpha:  3.026e-02  linmin: -2.831e-01  cgtest:  9.518e-01  t[s]:   1401.89
LCAOMinimize: Encountered beta<0, resetting CG.
LCAOMinimize: 	Predicted alpha/alphaT>3.000000, increasing alphaT to 9.077065e-02.
LCAOMinimize: 	Predicted alpha/alphaT>3.000000, increasing alphaT to 2.723119e-01.
	FillingsUpdate:  mu: -0.160200000  nElectrons: 225.000000  magneticMoment: [ Abs: 0.00431  Tot: +0.00002 ]
LCAOMinimize: Iter:  12  G: -348.7258654061092216  |grad|_K:  6.698e-04  alpha:  1.194e-01  linmin: -3.046e-01  cgtest:  8.202e-01  t[s]:   1573.12
LCAOMinimize: Encountered beta<0, resetting CG.
LCAOMinimize: 	Step increased G by 1.629576e-01, reducing alpha to 3.031836e-02.
	FillingsUpdate:  mu: -0.160200000  nElectrons: 225.000000  magneticMoment: [ Abs: 0.00431  Tot: +0.00003 ]
LCAOMinimize: Iter:  13  G: -348.7368446326245248  |grad|_K:  5.970e-04  alpha:  3.032e-02  linmin: -3.116e-01  cgtest:  9.702e-01  t[s]:   1770.58
LCAOMinimize: Encountered beta<0, resetting CG.
LCAOMinimize: 	Predicted alpha/alphaT>3.000000, increasing alphaT to 9.095509e-02.
LCAOMinimize: 	Predicted alpha/alphaT>3.000000, increasing alphaT to 2.728653e-01.
	FillingsUpdate:  mu: -0.160200000  nElectrons: 225.000000  magneticMoment: [ Abs: 0.00432  Tot: +0.00003 ]
LCAOMinimize: Iter:  14  G: -348.7537428216198805  |grad|_K:  4.440e-04  alpha:  6.292e-02  linmin: -3.173e-01  cgtest:  9.427e-01  t[s]:   1941.58
LCAOMinimize: Encountered beta<0, resetting CG.
LCAOMinimize: 	Predicted alpha/alphaT>3.000000, increasing alphaT to 1.887687e-01.
	FillingsUpdate:  mu: -0.160200000  nElectrons: 225.000000  magneticMoment: [ Abs: 0.00434  Tot: +0.00002 ]
LCAOMinimize: Iter:  15  G: -348.7693671874920369  |grad|_K:  2.416e-04  alpha:  1.887e-01  linmin:  1.568e-01  cgtest: -2.278e-01  t[s]:   2083.49
	FillingsUpdate:  mu: -0.160200000  nElectrons: 225.000000  magneticMoment: [ Abs: 0.00435  Tot: +0.00002 ]
LCAOMinimize: Iter:  16  G: -348.7695835383610756  |grad|_K:  2.747e-04  alpha:  5.737e-02  linmin: -3.273e-03  cgtest:  9.505e-01  t[s]:   2196.65
	FillingsUpdate:  mu: -0.160200000  nElectrons: 225.000000  magneticMoment: [ Abs: 0.00436  Tot: +0.00002 ]
LCAOMinimize: Iter:  17  G: -348.7718139152268009  |grad|_K:  7.773e-05  alpha:  6.726e-02  linmin: -1.794e-01  cgtest:  9.051e-01  t[s]:   2309.47
LCAOMinimize: Encountered beta<0, resetting CG.
	FillingsUpdate:  mu: -0.160200000  nElectrons: 225.000000  magneticMoment: [ Abs: 0.00437  Tot: +0.00003 ]
LCAOMinimize: Iter:  18  G: -348.7722332830223309  |grad|_K:  5.193e-05  alpha:  1.299e-01  linmin: -2.676e-01  cgtest:  7.470e-01  t[s]:   2422.53
LCAOMinimize: Encountered beta<0, resetting CG.
	FillingsUpdate:  mu: -0.160200000  nElectrons: 225.000000  magneticMoment: [ Abs: 0.00439  Tot: +0.00003 ]
LCAOMinimize: Iter:  19  G: -348.7727027076818445  |grad|_K:  3.237e-05  alpha:  3.099e-01  linmin: -2.249e-01  cgtest:  8.164e-01  t[s]:   2535.63
LCAOMinimize: Encountered beta<0, resetting CG.
	FillingsUpdate:  mu: -0.160200000  nElectrons: 225.000000  magneticMoment: [ Abs: 0.00441  Tot: +0.00003 ]
LCAOMinimize: Iter:  20  G: -348.7728874060221642  |grad|_K:  3.270e-05  alpha:  4.044e-01  linmin: -2.140e-02  cgtest:  1.077e-01  t[s]:   2648.80
	FillingsUpdate:  mu: -0.160200000  nElectrons: 225.000000  magneticMoment: [ Abs: 0.00442  Tot: +0.00003 ]
LCAOMinimize: Iter:  21  G: -348.7729930942919623  |grad|_K:  7.361e-06  alpha:  1.952e-01  linmin: -1.315e-01  cgtest:  6.195e-04  t[s]:   2761.94
	FillingsUpdate:  mu: -0.160200000  nElectrons: 225.000000  magneticMoment: [ Abs: 0.00444  Tot: +0.00003 ]
LCAOMinimize: Iter:  22  G: -348.7730049978400189  |grad|_K:  7.363e-06  alpha:  4.634e-01  linmin:  8.150e-03  cgtest: -2.861e-01  t[s]:   2874.87
	FillingsUpdate:  mu: -0.160200000  nElectrons: 225.000000  magneticMoment: [ Abs: 0.00444  Tot: +0.00003 ]
LCAOMinimize: Iter:  23  G: -348.7730066339103132  |grad|_K:  3.149e-06  alpha:  1.211e-01  linmin: -3.127e-02  cgtest:  8.938e-01  t[s]:   2988.30
LCAOMinimize: Encountered beta<0, resetting CG.
	FillingsUpdate:  mu: -0.160200000  nElectrons: 225.000000  magneticMoment: [ Abs: 0.00444  Tot: +0.00003 ]
LCAOMinimize: Iter:  24  G: -348.7730067139084440  |grad|_K:  1.869e-06  alpha:  5.566e-02  linmin: -3.262e-01  cgtest:  9.655e-01  t[s]:   3101.46
LCAOMinimize: Encountered beta<0, resetting CG.
	FillingsUpdate:  mu: -0.160200000  nElectrons: 225.000000  magneticMoment: [ Abs: 0.00444  Tot: +0.00003 ]
LCAOMinimize: Iter:  25  G: -348.7730067199465225  |grad|_K:  1.564e-06  alpha:  2.746e-02  linmin: -3.363e-01  cgtest:  9.944e-01  t[s]:   3214.60
LCAOMinimize: Encountered beta<0, resetting CG.
LCAOMinimize: Converged (|Delta G|<1.000000e-06 for 2 iters).
----- createFluidSolver() ----- (Fluid-side solver setup)
   Initializing fluid molecule 'H2O'
     Initializing site 'O'
       Electron density: proportional to exp(-r/0.36935)*erfc((r-0.51523)/0.36823) with norm 6.826
       Charge density: gaussian nuclear width 0.478731 with net site charge 0.826
       Polarizability: cuspless exponential with width 0.32 and norm 3.73
       Hard sphere radius: 2.57003 bohrs
       Positions in reference frame:
         [ +0.000000 +0.000000 +0.000000 ]
     Initializing site 'H'
       Electron density: proportional to exp(-r/0.34641)*erfc((r-0)/0.390882) with norm 0.587
       Charge density: gaussian nuclear width 0.377945 with net site charge -0.413
       Polarizability: cuspless exponential with width 0.39 and norm 3.3
       Positions in reference frame:
         [ +0.000000 -1.441945 +1.122523 ]
         [ +0.000000 +1.441945 +1.122523 ]
     Net charge: 0   dipole magnitude: 0.927204
     Initializing spherical shell mfKernel with radius 2.61727 Bohr
     deltaS corrections:
       site 'O': -7.54299
       site 'H': -6.83917
   Initializing fluid molecule 'Na+'
     Initializing site 'Na'
       Electron density: proportional to exp(-r/0.19682)*erfc((r-0.71491)/0.41314) with norm 8.1383
       Charge density: gaussian nuclear width 0.365347 with net site charge -1
       Hard sphere radius: 1.86327 bohrs
       Positions in reference frame:
         [ +0.000000 +0.000000 +0.000000 ]
     Net charge: -1   dipole magnitude: 0
     Initializing gaussian mfKernel with width: 1.55004 Bohr
     deltaS corrections:
       site 'Na': -22.3555
   Initializing fluid molecule 'F-'
     Initializing site 'F'
       Electron density: proportional to exp(-r/0.38886)*erfc((r-0)/0.438782) with norm 8
       Charge density: gaussian nuclear width 0.374796 with net site charge 1
       Hard sphere radius: 2.39995 bohrs
       Positions in reference frame:
         [ +0.000000 +0.000000 +0.000000 ]
     Net charge: 1   dipole magnitude: 0
     Initializing gaussian mfKernel with width: 1.59012 Bohr
     deltaS corrections:
       site 'F': -9.04335

Correction to mu due to finite nuclear width = -0.0110378
   Cavity determined by nc: 0.00142 and sigma: 0.707107
   Nonlocal vdW cavity from gaussian model electron density with norm = 8 and sigma = 0.993594 bohr
   Charge asymmetry in cavity with sensitivity pCavity = 36.5 e-bohr/Eh
   Electrostatic cavity expanded by eta = 1.46 bohrs
   Weighted density cavitation model constrained by Nbulk: 0.0049383 bohr^-3, Pvap: 3.14029 kPa, Rvdw: 2.61727 bohr and sigmaBulk: 4.62e-05 Eh/bohr^2 at T: 298 K.
   Weighted density dispersion model using vdW pair potentials with single solvent site with sqrtC6eff: 0.77 SI.
WARNING: Vibrations: switching off translationSym and rotationSym since useConstraints is on.

---- Citations for features of the code used in this run ----

   Software package:
      R. Sundararaman, K. Letchworth-Weaver, K.A. Schwarz, D. Gunceler, Y. Ozhabes and T.A. Arias, 'JDFTx: software for joint density-functional theory', SoftwareX 6, 278 (2017)

   gga-PBE exchange-correlation functional:
      J.P. Perdew, K. Burke and M. Ernzerhof, Phys. Rev. Lett. 77, 3865 (1996)

   Pseudopotentials:
      KF Garrity, JW Bennett, KM Rabe and D Vanderbilt, Comput. Mater. Sci. 81, 446 (2014)

   DFT-D3 dispersion correction:
      S. Grimme, J. Antony, S. Ehrlich and H. Krieg, J. Chem. Phys. 132, 154104 (2010)

   DFT-D2 dispersion correction:
      S. Grimme, J. Comput. Chem. 27, 1787 (2006)

   Charge-asymmetric nonlocally-determined local-electric (CANDLE) solvation model:
      R. Sundararaman and W.A. Goddard III, J. Chem. Phys. 142, 064107 (2015)

   Total energy minimization with Auxiliary Hamiltonian:
      C. Freysoldt, S. Boeck, and J. Neugebauer, Phys. Rev. B 79, 241103(R) (2009)

   Grand-canonical (fixed-potential) DFT:
      R. Sundararaman, W. A. Goddard III and T. A. Arias, J. Chem. Phys. 146, 114104 (2017)

   Linear-tetrahedron sampling for density of states:
      G. Lehmann and M. Taut, Phys. status solidi (b) 54, 469 (1972)

This list may not be complete. Please suggest additional citations or
report any other bugs at https://github.com/shankar1729/jdftx/issues

Initialization completed successfully at t[s]:   3229.56

------ Vibrations::calculate() -------
WARNING: Vibrations module is experimental. Please report bugs!
Compare results with and without symmetries and report discrepancies.
Degrees of freedom: 12 total, 12 symmetry-independent.

Computing DFT-D3 correction:
# coordination-number C 3.301 3.321 3.333 3.331 3.313 3.291 3.327 3.658 3.328 3.314 3.302 3.323 3.306 3.302 3.324 3.571 3.270 3.301 3.319 3.334 3.326 3.301 3.302 3.325 3.333 3.319 3.301 3.268 3.656 3.324 3.301 3.305 3.333 3.303 3.314 3.329 3.580 3.324 3.291 3.313 3.331 3.333 3.321 3.300 3.013
# coordination-number N 3.183 3.176 3.178 3.177
# coordination-number Ti 7.546
# coordination-number O 2.022 1.994
# coordination-number H 1.008
# diagonal-C6 C 24.28 24.08 23.94 23.96 24.16 24.37 24.00 19.66 24.00 24.15 24.26 24.05 24.23 24.26 24.04 20.64 24.55 24.28 24.09 23.94 24.02 24.27 24.27 24.02 23.94 24.09 24.27 24.57 19.68 24.04 24.27 24.24 23.94 24.25 24.15 23.98 20.52 24.04 24.36 24.16 23.96 23.94 24.08 24.28 25.65
# diagonal-C6 N 15.60 15.60 15.60 15.60
# diagonal-C6 Ti 321.59
# diagonal-C6 O 10.40 10.41
# diagonal-C6 H 3.09
EvdW_6 =   -0.040370
EvdW_8 =   -0.032260
Fluid solver invoked on fresh (random / LCAO) wavefunctions
Running a vacuum solve first:

-------- Initial electronic minimization -----------
	FillingsUpdate:  mu: -0.185900407  nElectrons: 225.000000  magneticMoment: [ Abs: 0.00444  Tot: +0.00003 ]
ElecMinimize: Iter:   0  G: -348.772329817850903  |grad|_K:  1.443e-04  alpha:  1.000e+00
	FillingsUpdate:  mu: -0.120879949  nElectrons: 225.000000  magneticMoment: [ Abs: 0.00243  Tot: +0.00004 ]
	SubspaceRotationAdjust: set factor to 1
ElecMinimize: Iter:   1  G: -351.720461167166945  |grad|_K:  4.746e-05  alpha:  6.830e-01  linmin:  2.283e-05  t[s]:   3409.78
	FillingsUpdate:  mu: -0.059391470  nElectrons: 225.000000  magneticMoment: [ Abs: 0.00241  Tot: +0.00020 ]
	SubspaceRotationAdjust: set factor to 0.68
ElecMinimize: Iter:   2  G: -351.772400984074636  |grad|_K:  6.502e-05  alpha:  1.084e-01  linmin:  9.487e-04  t[s]:   3519.43
	FillingsUpdate:  mu: -0.062460102  nElectrons: 225.000000  magneticMoment: [ Abs: 0.00197  Tot: +0.00062 ]
	SubspaceRotationAdjust: set factor to 0.425
ElecMinimize: Iter:   3  G: -351.894491232229768  |grad|_K:  6.408e-05  alpha:  2.032e-01  linmin:  3.766e-04  t[s]:   3629.24
	FillingsUpdate:  mu: -0.060670696  nElectrons: 225.000000  magneticMoment: [ Abs: 0.00161  Tot: +0.00069 ]
	SubspaceRotationAdjust: set factor to 0.71
ElecMinimize: Iter:   4  G: -351.971412194939091  |grad|_K:  2.421e-05  alpha:  9.179e-02  linmin:  2.937e-04  t[s]:   3738.85
	FillingsUpdate:  mu: -0.113475529  nElectrons: 225.000000  magneticMoment: [ Abs: 0.00122  Tot: +0.00043 ]
	SubspaceRotationAdjust: set factor to 0.601
ElecMinimize: Iter:   5  G: -351.989414208227743  |grad|_K:  2.796e-05  alpha:  1.493e-01  linmin: -6.151e-04  t[s]:   3848.49
	FillingsUpdate:  mu: -0.061786913  nElectrons: 225.000000  magneticMoment: [ Abs: 0.00248  Tot: +0.00211 ]
	SubspaceRotationAdjust: set factor to 0.279
ElecMinimize: Iter:   6  G: -352.029239183235973  |grad|_K:  1.372e-05  alpha:  2.167e-01  linmin:  1.147e-03  t[s]:   3958.39
	FillingsUpdate:  mu: -0.088641362  nElectrons: 225.000000  magneticMoment: [ Abs: 0.00278  Tot: +0.00252 ]
	SubspaceRotationAdjust: set factor to 0.176
ElecMinimize: Iter:   7  G: -352.036079404342217  |grad|_K:  1.174e-05  alpha:  2.154e-01  linmin:  2.820e-06  t[s]:   4067.72
	FillingsUpdate:  mu: -0.072981713  nElectrons: 225.000000  magneticMoment: [ Abs: 0.00458  Tot: +0.00442 ]
	SubspaceRotationAdjust: set factor to 0.256
ElecMinimize: Iter:   8  G: -352.045354567281095  |grad|_K:  6.383e-06  alpha:  3.206e-01  linmin:  2.592e-05  t[s]:   4177.50
	FillingsUpdate:  mu: -0.061547635  nElectrons: 225.000000  magneticMoment: [ Abs: 0.00744  Tot: +0.00729 ]
	SubspaceRotationAdjust: set factor to 0.218
ElecMinimize: Iter:   9  G: -352.048859942578588  |grad|_K:  5.285e-06  alpha:  4.110e-01  linmin:  1.475e-04  t[s]:   4287.66
	FillingsUpdate:  mu: -0.066391479  nElectrons: 225.000000  magneticMoment: [ Abs: 0.00938  Tot: +0.00918 ]
	SubspaceRotationAdjust: set factor to 0.177
ElecMinimize: Iter:  10  G: -352.050309885585023  |grad|_K:  2.763e-06  alpha:  2.495e-01  linmin:  1.543e-05  t[s]:   4397.24
	FillingsUpdate:  mu: -0.066353621  nElectrons: 225.000000  magneticMoment: [ Abs: 0.01488  Tot: +0.01460 ]
	SubspaceRotationAdjust: set factor to 0.203
ElecMinimize: Iter:  11  G: -352.051132634896703  |grad|_K:  2.142e-06  alpha:  5.135e-01  linmin:  4.170e-06  t[s]:   4507.14
	FillingsUpdate:  mu: -0.062315812  nElectrons: 225.000000  magneticMoment: [ Abs: 0.02204  Tot: +0.02163 ]
	SubspaceRotationAdjust: set factor to 0.172
ElecMinimize: Iter:  12  G: -352.051502240574450  |grad|_K:  1.661e-06  alpha:  3.839e-01  linmin:  2.002e-06  t[s]:   4616.93
	FillingsUpdate:  mu: -0.064515840  nElectrons: 225.000000  magneticMoment: [ Abs: 0.03177  Tot: +0.03113 ]
	SubspaceRotationAdjust: set factor to 0.159
ElecMinimize: Iter:  13  G: -352.051727661093764  |grad|_K:  1.060e-06  alpha:  3.889e-01  linmin: -6.474e-07  t[s]:   4726.52
	FillingsUpdate:  mu: -0.065778222  nElectrons: 225.000000  magneticMoment: [ Abs: 0.05045  Tot: +0.04940 ]
	SubspaceRotationAdjust: set factor to 0.183
ElecMinimize: Iter:  14  G: -352.051869897468691  |grad|_K:  9.585e-07  alpha:  6.021e-01  linmin:  1.018e-06  t[s]:   4836.43
	FillingsUpdate:  mu: -0.063529818  nElectrons: 225.000000  magneticMoment: [ Abs: 0.07752  Tot: +0.07590 ]
	SubspaceRotationAdjust: set factor to 0.169
ElecMinimize: Iter:  15  G: -352.051957780110286  |grad|_K:  8.509e-07  alpha:  4.546e-01  linmin:  5.948e-06  t[s]:   4946.25
	FillingsUpdate:  mu: -0.064900137  nElectrons: 225.000000  magneticMoment: [ Abs: 0.14825  Tot: +0.14504 ]
	SubspaceRotationAdjust: set factor to 0.211
ElecMinimize: Iter:  16  G: -352.052072020983189  |grad|_K:  1.121e-06  alpha:  7.585e-01  linmin:  2.220e-05  t[s]:   5055.92
	FillingsUpdate:  mu: -0.066166430  nElectrons: 225.000000  magneticMoment: [ Abs: 0.36378  Tot: +0.35267 ]
	SubspaceRotationAdjust: set factor to 0.231
ElecMinimize: Iter:  17  G: -352.052282095600049  |grad|_K:  2.144e-06  alpha:  1.187e+00  linmin:  3.740e-04  t[s]:   5165.78
	FillingsUpdate:  mu: -0.065420891  nElectrons: 225.000000  magneticMoment: [ Abs: 0.39386  Tot: +0.38087 ]
	SubspaceRotationAdjust: set factor to 0.284
ElecMinimize: Iter:  18  G: -352.052296081824636  |grad|_K:  2.212e-06  alpha:  5.788e-02  linmin:  6.262e-05  t[s]:   5275.59
	FillingsUpdate:  mu: -0.065060702  nElectrons: 225.000000  magneticMoment: [ Abs: 0.43893  Tot: +0.42147 ]
	SubspaceRotationAdjust: set factor to 0.349
ElecMinimize: Iter:  19  G: -352.052381715382012  |grad|_K:  2.091e-06  alpha:  9.089e-02  linmin: -4.698e-05  t[s]:   5385.34
	FillingsUpdate:  mu: -0.065371250  nElectrons: 225.000000  magneticMoment: [ Abs: 0.47660  Tot: +0.45247 ]
	SubspaceRotationAdjust: set factor to 0.458
ElecMinimize: Iter:  20  G: -352.052490216685669  |grad|_K:  1.788e-06  alpha:  1.087e-01  linmin: -8.563e-05  t[s]:   5495.08
	FillingsUpdate:  mu: -0.066692124  nElectrons: 225.000000  magneticMoment: [ Abs: 0.50189  Tot: +0.46998 ]
	SubspaceRotationAdjust: set factor to 0.577
ElecMinimize: Iter:  21  G: -352.052580364996345  |grad|_K:  1.603e-06  alpha:  1.237e-01  linmin: -7.308e-05  t[s]:   5605.19
	FillingsUpdate:  mu: -0.068164059  nElectrons: 225.000000  magneticMoment: [ Abs: 0.52820  Tot: +0.48564 ]
	SubspaceRotationAdjust: set factor to 0.706
ElecMinimize: Iter:  22  G: -352.052665806845823  |grad|_K:  1.730e-06  alpha:  1.509e-01  linmin: -7.506e-05  t[s]:   5714.83
	FillingsUpdate:  mu: -0.067619437  nElectrons: 225.000000  magneticMoment: [ Abs: 0.56445  Tot: +0.50601 ]
	SubspaceRotationAdjust: set factor to 0.903
ElecMinimize: Iter:  23  G: -352.052758690252517  |grad|_K:  1.697e-06  alpha:  1.440e-01  linmin: -2.555e-05  t[s]:   5824.45
	FillingsUpdate:  mu: -0.066247904  nElectrons: 225.000000  magneticMoment: [ Abs: 0.60123  Tot: +0.52342 ]
	SubspaceRotationAdjust: set factor to 1.03
ElecMinimize: Iter:  24  G: -352.052843810087381  |grad|_K:  1.674e-06  alpha:  1.388e-01  linmin: -1.894e-05  t[s]:   5934.23
	FillingsUpdate:  mu: -0.066568621  nElectrons: 225.000000  magneticMoment: [ Abs: 0.63669  Tot: +0.53412 ]
	SubspaceRotationAdjust: set factor to 1.16
ElecMinimize: Iter:  25  G: -352.052935500364072  |grad|_K:  1.588e-06  alpha:  1.519e-01  linmin: -3.315e-06  t[s]:   6044.13
	FillingsUpdate:  mu: -0.067860567  nElectrons: 225.000000  magneticMoment: [ Abs: 0.66560  Tot: +0.53936 ]
	SubspaceRotationAdjust: set factor to 1.24
ElecMinimize: Iter:  26  G: -352.053014700527001  |grad|_K:  1.588e-06  alpha:  1.486e-01  linmin: -6.323e-07  t[s]:   6154.29
	FillingsUpdate:  mu: -0.067402221  nElectrons: 225.000000  magneticMoment: [ Abs: 0.69572  Tot: +0.54441 ]
	SubspaceRotationAdjust: set factor to 1.48
ElecMinimize: Iter:  27  G: -352.053093323379358  |grad|_K:  1.498e-06  alpha:  1.482e-01  linmin: -7.748e-07  t[s]:   6263.78
	FillingsUpdate:  mu: -0.066201454  nElectrons: 225.000000  magneticMoment: [ Abs: 0.71880  Tot: +0.54718 ]
	SubspaceRotationAdjust: set factor to 1.69
ElecMinimize: Iter:  28  G: -352.053161667933523  |grad|_K:  1.494e-06  alpha:  1.446e-01  linmin: -1.251e-06  t[s]:   6373.38
	FillingsUpdate:  mu: -0.066365756  nElectrons: 225.000000  magneticMoment: [ Abs: 0.73143  Tot: +0.54614 ]
	SubspaceRotationAdjust: set factor to 1.81
ElecMinimize: Iter:  29  G: -352.053232564040741  |grad|_K:  1.558e-06  alpha:  1.508e-01  linmin:  1.918e-06  t[s]:   6483.08
	FillingsUpdate:  mu: -0.067495679  nElectrons: 225.000000  magneticMoment: [ Abs: 0.73073  Tot: +0.54066 ]
	SubspaceRotationAdjust: set factor to 1.76
ElecMinimize: Iter:  30  G: -352.053300075475249  |grad|_K:  1.626e-06  alpha:  1.322e-01  linmin:  9.340e-06  t[s]:   6592.85
	FillingsUpdate:  mu: -0.067018916  nElectrons: 225.000000  magneticMoment: [ Abs: 0.72298  Tot: +0.53344 ]
	SubspaceRotationAdjust: set factor to 2.17
ElecMinimize: Iter:  31  G: -352.053361135123851  |grad|_K:  1.451e-06  alpha:  1.106e-01  linmin: -6.955e-06  t[s]:   6702.82
	FillingsUpdate:  mu: -0.066010783  nElectrons: 225.000000  magneticMoment: [ Abs: 0.70950  Tot: +0.52575 ]
	SubspaceRotationAdjust: set factor to 2.42
ElecMinimize: Iter:  32  G: -352.053409484328995  |grad|_K:  1.420e-06  alpha:  1.087e-01  linmin: -5.224e-06  t[s]:   6812.82
	FillingsUpdate:  mu: -0.067021091  nElectrons: 225.000000  magneticMoment: [ Abs: 0.68754  Tot: +0.51396 ]
	SubspaceRotationAdjust: set factor to 2.91
ElecMinimize: Iter:  33  G: -352.053447144565780  |grad|_K:  1.286e-06  alpha:  8.678e-02  linmin:  4.012e-06  t[s]:   6922.49
	FillingsUpdate:  mu: -0.066528824  nElectrons: 225.000000  magneticMoment: [ Abs: 0.67014  Tot: +0.50887 ]
	SubspaceRotationAdjust: set factor to 3.66
ElecMinimize: Iter:  34  G: -352.053476317114246  |grad|_K:  1.113e-06  alpha:  8.478e-02  linmin: -2.609e-07  t[s]:   7032.36
	FillingsUpdate:  mu: -0.065992171  nElectrons: 225.000000  magneticMoment: [ Abs: 0.65689  Tot: +0.50918 ]
	SubspaceRotationAdjust: set factor to 3.79
ElecMinimize: Iter:  35  G: -352.053499404966374  |grad|_K:  1.201e-06  alpha:  8.864e-02  linmin:  3.924e-07  t[s]:   7142.06
	FillingsUpdate:  mu: -0.067205547  nElectrons: 225.000000  magneticMoment: [ Abs: 0.64453  Tot: +0.50758 ]
	SubspaceRotationAdjust: set factor to 3.3
ElecMinimize: Iter:  36  G: -352.053515250914415  |grad|_K:  1.237e-06  alpha:  5.241e-02  linmin:  3.586e-08  t[s]:   7251.92
	FillingsUpdate:  mu: -0.066453480  nElectrons: 225.000000  magneticMoment: [ Abs: 0.63912  Tot: +0.51383 ]
	SubspaceRotationAdjust: set factor to 3.6
ElecMinimize: Iter:  37  G: -352.053534133867117  |grad|_K:  1.025e-06  alpha:  5.864e-02  linmin: -5.951e-06  t[s]:   7361.70
	FillingsUpdate:  mu: -0.066618252  nElectrons: 225.000000  magneticMoment: [ Abs: 0.63391  Tot: +0.51867 ]
	SubspaceRotationAdjust: set factor to 3.65
ElecMinimize: Iter:  38  G: -352.053555182640366  |grad|_K:  9.786e-07  alpha:  9.456e-02  linmin: -3.828e-06  t[s]:   7471.31
	FillingsUpdate:  mu: -0.067192062  nElectrons: 225.000000  magneticMoment: [ Abs: 0.63201  Tot: +0.52053 ]
	SubspaceRotationAdjust: set factor to 3.33
ElecMinimize: Iter:  39  G: -352.053571546911314  |grad|_K:  9.944e-07  alpha:  8.115e-02  linmin: -1.695e-07  t[s]:   7580.90
	FillingsUpdate:  mu: -0.066237750  nElectrons: 225.000000  magneticMoment: [ Abs: 0.63662  Tot: +0.52420 ]
	SubspaceRotationAdjust: set factor to 3.36
ElecMinimize: Iter:  40  G: -352.053582951499664  |grad|_K:  9.514e-07  alpha:  5.524e-02  linmin: -2.930e-07  t[s]:   7690.35
	FillingsUpdate:  mu: -0.066734037  nElectrons: 225.000000  magneticMoment: [ Abs: 0.63961  Tot: +0.52395 ]
	SubspaceRotationAdjust: set factor to 4.13
ElecMinimize: Iter:  41  G: -352.053596032958126  |grad|_K:  7.789e-07  alpha:  6.867e-02  linmin: -1.038e-06  t[s]:   7799.82
	FillingsUpdate:  mu: -0.066887648  nElectrons: 225.000000  magneticMoment: [ Abs: 0.64490  Tot: +0.52363 ]
	SubspaceRotationAdjust: set factor to 4.7
ElecMinimize: Iter:  42  G: -352.053607395839492  |grad|_K:  7.784e-07  alpha:  8.888e-02  linmin:  1.025e-07  t[s]:   7909.21
	FillingsUpdate:  mu: -0.066108949  nElectrons: 225.000000  magneticMoment: [ Abs: 0.65151  Tot: +0.52479 ]
	SubspaceRotationAdjust: set factor to 3.73
ElecMinimize: Iter:  43  G: -352.053615655688418  |grad|_K:  9.793e-07  alpha:  6.506e-02  linmin: -1.294e-06  t[s]:   8019.06
	FillingsUpdate:  mu: -0.066904240  nElectrons: 225.000000  magneticMoment: [ Abs: 0.65336  Tot: +0.52153 ]
	SubspaceRotationAdjust: set factor to 3.83
ElecMinimize: Iter:  44  G: -352.053625137417896  |grad|_K:  8.099e-07  alpha:  4.684e-02  linmin:  1.921e-06  t[s]:   8128.65
	FillingsUpdate:  mu: -0.066748267  nElectrons: 225.000000  magneticMoment: [ Abs: 0.65611  Tot: +0.51933 ]
	SubspaceRotationAdjust: set factor to 4.54
ElecMinimize: Iter:  45  G: -352.053637172782828  |grad|_K:  7.369e-07  alpha:  8.743e-02  linmin:  9.197e-07  t[s]:   8238.07
	FillingsUpdate:  mu: -0.066139823  nElectrons: 225.000000  magneticMoment: [ Abs: 0.65602  Tot: +0.51905 ]
	SubspaceRotationAdjust: set factor to 3.73
ElecMinimize: Iter:  46  G: -352.053645797137108  |grad|_K:  8.597e-07  alpha:  7.564e-02  linmin:  6.072e-07  t[s]:   8348.66
	FillingsUpdate:  mu: -0.066889333  nElectrons: 225.000000  magneticMoment: [ Abs: 0.65055  Tot: +0.51626 ]
	SubspaceRotationAdjust: set factor to 3.64
ElecMinimize: Iter:  47  G: -352.053651831189939  |grad|_K:  7.366e-07  alpha:  3.835e-02  linmin: -2.929e-06  t[s]:   8459.13
	FillingsUpdate:  mu: -0.066698743  nElectrons: 225.000000  magneticMoment: [ Abs: 0.64352  Tot: +0.51673 ]
	SubspaceRotationAdjust: set factor to 4.55
ElecMinimize: Iter:  48  G: -352.053661202403816  |grad|_K:  6.590e-07  alpha:  8.174e-02  linmin:  8.467e-07  t[s]:   8570.14
	FillingsUpdate:  mu: -0.066113770  nElectrons: 225.000000  magneticMoment: [ Abs: 0.63968  Tot: +0.51934 ]
	SubspaceRotationAdjust: set factor to 3.61
ElecMinimize: Iter:  49  G: -352.053667214058066  |grad|_K:  7.976e-07  alpha:  6.600e-02  linmin: -1.474e-06  t[s]:   8674.38
	FillingsUpdate:  mu: -0.066777966  nElectrons: 225.000000  magneticMoment: [ Abs: 0.63331  Tot: +0.51902 ]
	SubspaceRotationAdjust: set factor to 3.62
ElecMinimize: Iter:  50  G: -352.053672023859122  |grad|_K:  5.950e-07  alpha:  3.589e-02  linmin: -8.034e-07  t[s]:   8782.01
	FillingsUpdate:  mu: -0.066898202  nElectrons: 225.000000  magneticMoment: [ Abs: 0.62748  Tot: +0.52095 ]
	SubspaceRotationAdjust: set factor to 3.56
ElecMinimize: Iter:  51  G: -352.053678842708962  |grad|_K:  6.066e-07  alpha:  9.158e-02  linmin: -4.788e-07  t[s]:   8891.55
	FillingsUpdate:  mu: -0.066294158  nElectrons: 225.000000  magneticMoment: [ Abs: 0.62692  Tot: +0.52320 ]
	SubspaceRotationAdjust: set factor to 3.12
ElecMinimize: Iter:  52  G: -352.053682679443341  |grad|_K:  6.144e-07  alpha:  4.991e-02  linmin:  1.141e-06  t[s]:   9001.63
	FillingsUpdate:  mu: -0.066630488  nElectrons: 225.000000  magneticMoment: [ Abs: 0.62460  Tot: +0.52279 ]
	SubspaceRotationAdjust: set factor to 4.12
ElecMinimize: Iter:  53  G: -352.053687174191964  |grad|_K:  4.673e-07  alpha:  5.677e-02  linmin: -8.394e-08  t[s]:   9111.17
	FillingsUpdate:  mu: -0.067013353  nElectrons: 225.000000  magneticMoment: [ Abs: 0.62453  Tot: +0.52150 ]
	SubspaceRotationAdjust: set factor to 3.15
ElecMinimize: Iter:  54  G: -352.053691321122642  |grad|_K:  6.089e-07  alpha:  9.041e-02  linmin:  9.081e-07  t[s]:   9220.64
	FillingsUpdate:  mu: -0.066476546  nElectrons: 225.000000  magneticMoment: [ Abs: 0.62787  Tot: +0.52222 ]
	SubspaceRotationAdjust: set factor to 3.39
ElecMinimize: Iter:  55  G: -352.053694087622148  |grad|_K:  4.564e-07  alpha:  3.572e-02  linmin:  1.696e-06  t[s]:   9330.28
	FillingsUpdate:  mu: -0.066437329  nElectrons: 225.000000  magneticMoment: [ Abs: 0.63256  Tot: +0.52146 ]
	SubspaceRotationAdjust: set factor to 3.43
ElecMinimize: Iter:  56  G: -352.053697817380908  |grad|_K:  4.675e-07  alpha:  8.539e-02  linmin: -6.013e-07  t[s]:   9441.32
	FillingsUpdate:  mu: -0.066945891  nElectrons: 225.000000  magneticMoment: [ Abs: 0.63453  Tot: +0.51974 ]
	SubspaceRotationAdjust: set factor to 3.07
ElecMinimize: Iter:  57  G: -352.053700007461998  |grad|_K:  4.843e-07  alpha:  4.750e-02  linmin: -1.473e-06  t[s]:   9552.45
	FillingsUpdate:  mu: -0.066786029  nElectrons: 225.000000  magneticMoment: [ Abs: 0.64060  Tot: +0.51935 ]
	SubspaceRotationAdjust: set factor to 3.98
ElecMinimize: Iter:  58  G: -352.053703344607982  |grad|_K:  3.956e-07  alpha:  6.761e-02  linmin:  6.915e-08  t[s]:   9663.90
	FillingsUpdate:  mu: -0.066359306  nElectrons: 225.000000  magneticMoment: [ Abs: 0.64502  Tot: +0.51992 ]
	SubspaceRotationAdjust: set factor to 3.13
ElecMinimize: Iter:  59  G: -352.053705499621913  |grad|_K:  4.970e-07  alpha:  6.555e-02  linmin: -3.934e-07  t[s]:   9775.22
	FillingsUpdate:  mu: -0.066689504  nElectrons: 225.000000  magneticMoment: [ Abs: 0.64664  Tot: +0.51859 ]
	SubspaceRotationAdjust: set factor to 3.89
ElecMinimize: Iter:  60  G: -352.053707768367701  |grad|_K:  3.442e-07  alpha:  4.361e-02  linmin:  1.294e-07  t[s]:   9886.01
	FillingsUpdate:  mu: -0.066884009  nElectrons: 225.000000  magneticMoment: [ Abs: 0.64713  Tot: +0.51791 ]
	SubspaceRotationAdjust: set factor to 3.27
ElecMinimize: Iter:  61  G: -352.053709974935146  |grad|_K:  4.159e-07  alpha:  8.866e-02  linmin:  2.530e-07  t[s]:   9996.96
	FillingsUpdate:  mu: -0.066474150  nElectrons: 225.000000  magneticMoment: [ Abs: 0.64822  Tot: +0.51910 ]
	SubspaceRotationAdjust: set factor to 3.27
ElecMinimize: Iter:  62  G: -352.053711377367222  |grad|_K:  3.596e-07  alpha:  3.874e-02  linmin:  1.925e-06  t[s]:  10108.22
	FillingsUpdate:  mu: -0.066466493  nElectrons: 225.000000  magneticMoment: [ Abs: 0.64698  Tot: +0.51995 ]
	SubspaceRotationAdjust: set factor to 3.25
ElecMinimize: Iter:  63  G: -352.053713624273200  |grad|_K:  3.364e-07  alpha:  8.281e-02  linmin: -1.363e-06  t[s]:  10219.74
	FillingsUpdate:  mu: -0.066817312  nElectrons: 225.000000  magneticMoment: [ Abs: 0.64497  Tot: +0.51974 ]
	SubspaceRotationAdjust: set factor to 3.05
ElecMinimize: Iter:  64  G: -352.053714723196606  |grad|_K:  3.319e-07  alpha:  4.613e-02  linmin: -4.628e-07  t[s]:  10331.69
	FillingsUpdate:  mu: -0.066684201  nElectrons: 225.000000  magneticMoment: [ Abs: 0.64352  Tot: +0.52110 ]
	SubspaceRotationAdjust: set factor to 4.27
ElecMinimize: Iter:  65  G: -352.053716261413570  |grad|_K:  2.718e-07  alpha:  6.638e-02  linmin: -7.215e-07  t[s]:  10443.31
	FillingsUpdate:  mu: -0.066375933  nElectrons: 225.000000  magneticMoment: [ Abs: 0.64303  Tot: +0.52239 ]
	SubspaceRotationAdjust: set factor to 3.38
ElecMinimize: Iter:  66  G: -352.053717302345092  |grad|_K:  3.570e-07  alpha:  6.695e-02  linmin: -1.207e-06  t[s]:  10555.21
	FillingsUpdate:  mu: -0.066618402  nElectrons: 225.000000  magneticMoment: [ Abs: 0.64097  Tot: +0.52217 ]
	SubspaceRotationAdjust: set factor to 3.94
ElecMinimize: Iter:  67  G: -352.053718410832346  |grad|_K:  2.463e-07  alpha:  4.127e-02  linmin: -3.308e-08  t[s]:  10667.01
	FillingsUpdate:  mu: -0.066745025  nElectrons: 225.000000  magneticMoment: [ Abs: 0.63968  Tot: +0.52177 ]
	SubspaceRotationAdjust: set factor to 3.57
ElecMinimize: Iter:  68  G: -352.053719571383510  |grad|_K:  2.942e-07  alpha:  9.101e-02  linmin:  2.014e-07  t[s]:  10778.46
	FillingsUpdate:  mu: -0.066448116  nElectrons: 225.000000  magneticMoment: [ Abs: 0.64036  Tot: +0.52221 ]
	SubspaceRotationAdjust: set factor to 3.5
ElecMinimize: Iter:  69  G: -352.053720293248944  |grad|_K:  2.693e-07  alpha:  3.979e-02  linmin:  1.080e-06  t[s]:  10890.29
	FillingsUpdate:  mu: -0.066475450  nElectrons: 225.000000  magneticMoment: [ Abs: 0.64103  Tot: +0.52152 ]
	SubspaceRotationAdjust: set factor to 3.47
ElecMinimize: Iter:  70  G: -352.053721540684535  |grad|_K:  2.606e-07  alpha:  8.196e-02  linmin:  5.576e-07  t[s]:  11001.71
	FillingsUpdate:  mu: -0.066764756  nElectrons: 225.000000  magneticMoment: [ Abs: 0.64134  Tot: +0.52046 ]
	SubspaceRotationAdjust: set factor to 2.83
ElecMinimize: Iter:  71  G: -352.053722334911356  |grad|_K:  2.976e-07  alpha:  5.560e-02  linmin:  1.014e-08  t[s]:  11112.76
	FillingsUpdate:  mu: -0.066599290  nElectrons: 225.000000  magneticMoment: [ Abs: 0.64373  Tot: +0.52044 ]
	SubspaceRotationAdjust: set factor to 4.03
ElecMinimize: Iter:  72  G: -352.053723359827586  |grad|_K:  2.137e-07  alpha:  5.505e-02  linmin:  9.048e-08  t[s]:  11224.61
	FillingsUpdate:  mu: -0.066392566  nElectrons: 225.000000  magneticMoment: [ Abs: 0.64604  Tot: +0.52078 ]
	SubspaceRotationAdjust: set factor to 3.06
ElecMinimize: Iter:  73  G: -352.053724150028529  |grad|_K:  2.916e-07  alpha:  8.236e-02  linmin: -1.420e-07  t[s]:  11336.14
	FillingsUpdate:  mu: -0.066639644  nElectrons: 225.000000  magneticMoment: [ Abs: 0.64676  Tot: +0.52012 ]
	SubspaceRotationAdjust: set factor to 3.46
ElecMinimize: Iter:  74  G: -352.053724827034728  |grad|_K:  2.042e-07  alpha:  3.781e-02  linmin: -5.705e-07  t[s]:  11447.96
	FillingsUpdate:  mu: -0.066740946  nElectrons: 225.000000  magneticMoment: [ Abs: 0.64767  Tot: +0.51996 ]
	SubspaceRotationAdjust: set factor to 3.33
ElecMinimize: Iter:  75  G: -352.053725590827753  |grad|_K:  2.190e-07  alpha:  8.702e-02  linmin: -6.727e-07  t[s]:  11559.71
	FillingsUpdate:  mu: -0.066526749  nElectrons: 225.000000  magneticMoment: [ Abs: 0.64855  Tot: +0.52060 ]
	SubspaceRotationAdjust: set factor to 3.13
ElecMinimize: Iter:  76  G: -352.053725986104894  |grad|_K:  1.916e-07  alpha:  3.928e-02  linmin:  1.004e-06  t[s]:  11671.38
	FillingsUpdate:  mu: -0.066527938  nElectrons: 225.000000  magneticMoment: [ Abs: 0.64823  Tot: +0.52092 ]
	SubspaceRotationAdjust: set factor to 2.98
ElecMinimize: Iter:  77  G: -352.053726668299021  |grad|_K:  1.917e-07  alpha:  8.858e-02  linmin: -3.096e-07  t[s]:  11781.99
	FillingsUpdate:  mu: -0.066738710  nElectrons: 225.000000  magneticMoment: [ Abs: 0.64707  Tot: +0.52064 ]
	SubspaceRotationAdjust: set factor to 2.6
ElecMinimize: Iter:  78  G: -352.053727050239615  |grad|_K:  1.894e-07  alpha:  4.934e-02  linmin: -5.735e-07  t[s]:  11892.26
	FillingsUpdate:  mu: -0.066677008  nElectrons: 225.000000  magneticMoment: [ Abs: 0.64601  Tot: +0.52109 ]
	SubspaceRotationAdjust: set factor to 3.72
ElecMinimize: Iter:  79  G: -352.053727574290122  |grad|_K:  1.481e-07  alpha:  6.945e-02  linmin: -1.963e-07  t[s]:  12002.85
	FillingsUpdate:  mu: -0.066503413  nElectrons: 225.000000  magneticMoment: [ Abs: 0.64551  Tot: +0.52162 ]
	SubspaceRotationAdjust: set factor to 3.16
ElecMinimize: Iter:  80  G: -352.053727882405212  |grad|_K:  1.835e-07  alpha:  6.681e-02  linmin: -3.187e-09  t[s]:  12114.59
	FillingsUpdate:  mu: -0.066627671  nElectrons: 225.000000  magneticMoment: [ Abs: 0.64376  Tot: +0.52136 ]
	SubspaceRotationAdjust: set factor to 3.89
ElecMinimize: Iter:  81  G: -352.053728253502413  |grad|_K:  1.335e-07  alpha:  5.242e-02  linmin:  1.292e-08  t[s]:  12225.95
	FillingsUpdate:  mu: -0.066711875  nElectrons: 225.000000  magneticMoment: [ Abs: 0.64214  Tot: +0.52099 ]
	SubspaceRotationAdjust: set factor to 3.51
ElecMinimize: Iter:  82  G: -352.053728599834074  |grad|_K:  1.546e-07  alpha:  9.243e-02  linmin:  1.014e-08  t[s]:  12337.13
	FillingsUpdate:  mu: -0.066563782  nElectrons: 225.000000  magneticMoment: [ Abs: 0.64189  Tot: +0.52117 ]
	SubspaceRotationAdjust: set factor to 3.23
ElecMinimize: Iter:  83  G: -352.053728788354249  |grad|_K:  1.289e-07  alpha:  3.755e-02  linmin:  1.384e-07  t[s]:  12449.17
	FillingsUpdate:  mu: -0.066581447  nElectrons: 225.000000  magneticMoment: [ Abs: 0.64113  Tot: +0.52077 ]
	SubspaceRotationAdjust: set factor to 3.85
ElecMinimize: Iter:  84  G: -352.053729069045517  |grad|_K:  1.181e-07  alpha:  8.039e-02  linmin:  1.400e-07  t[s]:  12560.59
	FillingsUpdate:  mu: -0.066714512  nElectrons: 225.000000  magneticMoment: [ Abs: 0.64060  Tot: +0.52023 ]
	SubspaceRotationAdjust: set factor to 2.92
ElecMinimize: Iter:  85  G: -352.053729258757187  |grad|_K:  1.498e-07  alpha:  6.470e-02  linmin:  2.260e-07  t[s]:  12671.98
	FillingsUpdate:  mu: -0.066606511  nElectrons: 225.000000  magneticMoment: [ Abs: 0.64103  Tot: +0.52029 ]
	SubspaceRotationAdjust: set factor to 4.1
ElecMinimize: Iter:  86  G: -352.053729494448191  |grad|_K:  1.031e-07  alpha:  5.004e-02  linmin: -4.040e-08  t[s]:  12783.96
	FillingsUpdate:  mu: -0.066528388  nElectrons: 225.000000  magneticMoment: [ Abs: 0.64176  Tot: +0.52043 ]
	SubspaceRotationAdjust: set factor to 3.45
ElecMinimize: Iter:  87  G: -352.053729705849435  |grad|_K:  1.290e-07  alpha:  9.466e-02  linmin: -1.203e-07  t[s]:  12895.79
	FillingsUpdate:  mu: -0.066649574  nElectrons: 225.000000  magneticMoment: [ Abs: 0.64186  Tot: +0.52017 ]
	SubspaceRotationAdjust: set factor to 3.23
ElecMinimize: Iter:  88  G: -352.053729833766511  |grad|_K:  1.087e-07  alpha:  3.655e-02  linmin: -1.764e-07  t[s]:  13007.52
	FillingsUpdate:  mu: -0.066648476  nElectrons: 225.000000  magneticMoment: [ Abs: 0.64274  Tot: +0.52034 ]
	SubspaceRotationAdjust: set factor to 4.18
ElecMinimize: Iter:  89  G: -352.053730043966254  |grad|_K:  1.015e-07  alpha:  8.457e-02  linmin: -7.344e-07  t[s]:  13119.13
	FillingsUpdate:  mu: -0.066534878  nElectrons: 225.000000  magneticMoment: [ Abs: 0.64348  Tot: +0.52072 ]
	SubspaceRotationAdjust: set factor to 3.72
ElecMinimize: Iter:  90  G: -352.053730154790401  |grad|_K:  1.160e-07  alpha:  5.113e-02  linmin:  1.509e-07  t[s]:  13230.70
	FillingsUpdate:  mu: -0.066604254  nElectrons: 225.000000  magneticMoment: [ Abs: 0.64377  Tot: +0.52075 ]
	SubspaceRotationAdjust: set factor to 4.64
ElecMinimize: Iter:  91  G: -352.053730320913473  |grad|_K:  9.134e-08  alpha:  5.876e-02  linmin: -1.438e-07  t[s]:  13342.71
	FillingsUpdate:  mu: -0.066662291  nElectrons: 225.000000  magneticMoment: [ Abs: 0.64378  Tot: +0.52081 ]
	SubspaceRotationAdjust: set factor to 3.69
ElecMinimize: Iter:  92  G: -352.053730484698860  |grad|_K:  1.124e-07  alpha:  9.327e-02  linmin: -4.740e-07  t[s]:  13454.36
	FillingsUpdate:  mu: -0.066554062  nElectrons: 225.000000  magneticMoment: [ Abs: 0.64402  Tot: +0.52117 ]
	SubspaceRotationAdjust: set factor to 3.51
ElecMinimize: Iter:  93  G: -352.053730575108602  |grad|_K:  9.569e-08  alpha:  3.407e-02  linmin:  6.483e-07  t[s]:  13565.61
	FillingsUpdate:  mu: -0.066571727  nElectrons: 225.000000  magneticMoment: [ Abs: 0.64358  Tot: +0.52122 ]
	SubspaceRotationAdjust: set factor to 4.5
ElecMinimize: Iter:  94  G: -352.053730724296429  |grad|_K:  8.361e-08  alpha:  7.764e-02  linmin: -3.638e-07  t[s]:  13676.83
	FillingsUpdate:  mu: -0.066667023  nElectrons: 225.000000  magneticMoment: [ Abs: 0.64295  Tot: +0.52096 ]
	SubspaceRotationAdjust: set factor to 3.52
ElecMinimize: Iter:  95  G: -352.053730806377189  |grad|_K:  1.033e-07  alpha:  5.578e-02  linmin:  1.314e-07  t[s]:  13788.43
	FillingsUpdate:  mu: -0.066598645  nElectrons: 225.000000  magneticMoment: [ Abs: 0.64257  Tot: +0.52102 ]
	SubspaceRotationAdjust: set factor to 4.13
ElecMinimize: Iter:  96  G: -352.053730903543283  |grad|_K:  7.127e-08  alpha:  4.332e-02  linmin: -2.816e-08  t[s]:  13900.08
ElecMinimize: Converged (|Delta G|<1.000000e-07 for 2 iters).
Setting wave functions to eigenvectors of Hamiltonian
Converging empty states (this may take a while): |deigs|: 4.794e-03
Vacuum energy after initial minimize, F = -352.053730903543283

Shifting auxilliary hamiltonian by -0.093601 to set nElectrons=225.000000

-------- Electronic minimization -----------
	Linear fluid (dielectric constant: 78.4, screening length: 8.12261 Bohr) occupying 0.720495 of unit cell:	Completed after 23 iterations at t[s]:  14405.40
	FillingsUpdate:  mu: -0.160200000  nElectrons: 225.000000  magneticMoment: [ Abs: 0.64225  Tot: +0.52049 ]
ElecMinimize: Iter:   0  G: -352.054331756549004  |grad|_K:  4.524e-05  alpha:  1.000e+00
	Linear fluid (dielectric constant: 78.4, screening length: 8.12261 Bohr) occupying 0.727629 of unit cell:	Completed after 25 iterations at t[s]:  14517.73
	Linear fluid (dielectric constant: 78.4, screening length: 8.12261 Bohr) occupying 0.720555 of unit cell:	Completed after 24 iterations at t[s]:  14568.92
ElecMinimize: 	Step increased G by 1.209332e-02, reducing alpha to 6.824069e-03.
	Linear fluid (dielectric constant: 78.4, screening length: 8.12261 Bohr) occupying 0.720429 of unit cell:	Completed after 19 iterations at t[s]:  14662.55
	FillingsUpdate:  mu: -0.160200000  nElectrons: 224.816160  magneticMoment: [ Abs: 0.50373  Tot: +0.35597 ]
	SubspaceRotationAdjust: set factor to 2.14
ElecMinimize: Iter:   1  G: -352.057048850643866  |grad|_K:  2.259e-05  alpha:  6.824e-03  linmin:  2.102e-03  t[s]:  14712.10
	Linear fluid (dielectric constant: 78.4, screening length: 8.12261 Bohr) occupying 0.720461 of unit cell:	Completed after 11 iterations at t[s]:  14759.82
ElecMinimize: 	Predicted alpha/alphaT>3.000000, increasing alphaT to 2.047221e-02.
	Linear fluid (dielectric constant: 78.4, screening length: 8.12261 Bohr) occupying 0.720524 of unit cell:	Completed after 10 iterations at t[s]:  14801.77
	Linear fluid (dielectric constant: 78.4, screening length: 8.12261 Bohr) occupying 0.720585 of unit cell:	Completed after 10 iterations at t[s]:  14843.73
	FillingsUpdate:  mu: -0.160200000  nElectrons: 224.777529  magneticMoment: [ Abs: 0.52377  Tot: +0.33295 ]
	SubspaceRotationAdjust: set factor to 1.1
ElecMinimize: Iter:   2  G: -352.060616276355063  |grad|_K:  1.573e-05  alpha:  3.324e-02  linmin: -1.495e-03  t[s]:  14893.22
	Linear fluid (dielectric constant: 78.4, screening length: 8.12261 Bohr) occupying 0.720680 of unit cell:	Completed after 17 iterations at t[s]:  14944.76
	Linear fluid (dielectric constant: 78.4, screening length: 8.12261 Bohr) occupying 0.720677 of unit cell:	Completed after 3 iterations at t[s]:  14982.34
	FillingsUpdate:  mu: -0.160200000  nElectrons: 224.613687  magneticMoment: [ Abs: 0.41918  Tot: +0.17160 ]
	SubspaceRotationAdjust: set factor to 0.565
ElecMinimize: Iter:   3  G: -352.062510110676669  |grad|_K:  9.432e-06  alpha:  3.228e-02  linmin: -9.374e-04  t[s]:  15031.46
	Linear fluid (dielectric constant: 78.4, screening length: 8.12261 Bohr) occupying 0.720766 of unit cell:	Completed after 11 iterations at t[s]:  15079.38
	Linear fluid (dielectric constant: 78.4, screening length: 8.12261 Bohr) occupying 0.720891 of unit cell:	Completed after 11 iterations at t[s]:  15121.56
	FillingsUpdate:  mu: -0.160200000  nElectrons: 224.598081  magneticMoment: [ Abs: 0.46059  Tot: +0.19761 ]
	SubspaceRotationAdjust: set factor to 0.278
	SubspaceRotationAdjust: resetting CG because factor has changed by 0.0672809
	Linear fluid (dielectric constant: 78.4, screening length: 8.12261 Bohr) occupying 0.720891 of unit cell:	Completed after 0 iterations at t[s]:  15192.14
ElecMinimize: 	State modified externally: resetting search direction.
ElecMinimize: Iter:   4  G: -352.064096011873630  |grad|_K:  6.709e-06  alpha:  7.621e-02
	Linear fluid (dielectric constant: 78.4, screening length: 8.12261 Bohr) occupying 0.720950 of unit cell:	Completed after 15 iterations at t[s]:  15292.41
	Linear fluid (dielectric constant: 78.4, screening length: 8.12261 Bohr) occupying 0.720971 of unit cell:	Completed after 11 iterations at t[s]:  15334.95
	FillingsUpdate:  mu: -0.160200000  nElectrons: 224.531259  magneticMoment: [ Abs: 0.40346  Tot: +0.14079 ]
	SubspaceRotationAdjust: set factor to 0.646
ElecMinimize: Iter:   5  G: -352.065113506619809  |grad|_K:  3.311e-06  alpha:  1.026e-01  linmin: -5.947e-03  t[s]:  15384.45
	Linear fluid (dielectric constant: 78.4, screening length: 8.12261 Bohr) occupying 0.721085 of unit cell:	Completed after 6 iterations at t[s]:  15429.29
ElecMinimize: 	Predicted alpha/alphaT>3.000000, increasing alphaT to 3.076592e-01.
	Linear fluid (dielectric constant: 78.4, screening length: 8.12261 Bohr) occupying 0.721313 of unit cell:	Completed after 8 iterations at t[s]:  15469.31
ElecMinimize: 	Predicted alpha/alphaT>3.000000, increasing alphaT to 9.229777e-01.
	Linear fluid (dielectric constant: 78.4, screening length: 8.12261 Bohr) occupying 0.721993 of unit cell:	Completed after 11 iterations at t[s]:  15511.83
	Linear fluid (dielectric constant: 78.4, screening length: 8.12261 Bohr) occupying 0.722179 of unit cell:	Completed after 8 iterations at t[s]:  15552.64
	FillingsUpdate:  mu: -0.160200000  nElectrons: 224.382483  magneticMoment: [ Abs: 0.30237  Tot: +0.12202 ]
	SubspaceRotationAdjust: set factor to 0.571
ElecMinimize: Iter:   6  G: -352.067998664605113  |grad|_K:  3.163e-06  alpha:  1.092e+00  linmin: -1.462e-04  t[s]:  15602.15
	Linear fluid (dielectric constant: 78.4, screening length: 8.12261 Bohr) occupying 0.723697 of unit cell:	Completed after 19 iterations at t[s]:  15655.48
	Linear fluid (dielectric constant: 78.4, screening length: 8.12261 Bohr) occupying 0.722440 of unit cell:	Completed after 17 iterations at t[s]:  15702.55
	FillingsUpdate:  mu: -0.160200000  nElectrons: 224.359178  magneticMoment: [ Abs: 0.30066  Tot: +0.14598 ]
	SubspaceRotationAdjust: set factor to 0.49
ElecMinimize: Iter:   7  G: -352.068442106235977  |grad|_K:  3.037e-06  alpha:  1.843e-01  linmin: -6.511e-04  t[s]:  15752.23
	Linear fluid (dielectric constant: 78.4, screening length: 8.12261 Bohr) occupying 0.722717 of unit cell:	Completed after 12 iterations at t[s]:  15801.04
	Linear fluid (dielectric constant: 78.4, screening length: 8.12261 Bohr) occupying 0.722813 of unit cell:	Completed after 9 iterations at t[s]:  15842.08
	FillingsUpdate:  mu: -0.160200000  nElectrons: 224.280918  magneticMoment: [ Abs: 0.26798  Tot: +0.15850 ]
	SubspaceRotationAdjust: set factor to 0.459
ElecMinimize: Iter:   8  G: -352.069005905862582  |grad|_K:  1.828e-06  alpha:  2.489e-01  linmin: -6.558e-04  t[s]:  15891.62
	Linear fluid (dielectric constant: 78.4, screening length: 8.12261 Bohr) occupying 0.722966 of unit cell:	Completed after 13 iterations at t[s]:  15940.96
	Linear fluid (dielectric constant: 78.4, screening length: 8.12261 Bohr) occupying 0.722957 of unit cell:	Completed after 3 iterations at t[s]:  15978.17
	FillingsUpdate:  mu: -0.160200000  nElectrons: 224.249607  magneticMoment: [ Abs: 0.24428  Tot: +0.15135 ]
	SubspaceRotationAdjust: set factor to 0.433
ElecMinimize: Iter:   9  G: -352.069186480475992  |grad|_K:  1.181e-06  alpha:  2.337e-01  linmin: -4.438e-04  t[s]:  16027.15
	Linear fluid (dielectric constant: 78.4, screening length: 8.12261 Bohr) occupying 0.723032 of unit cell:	Completed after 8 iterations at t[s]:  16072.81
	Linear fluid (dielectric constant: 78.4, screening length: 8.12261 Bohr) occupying 0.723131 of unit cell:	Completed after 9 iterations at t[s]:  16113.44
	FillingsUpdate:  mu: -0.160200000  nElectrons: 224.256889  magneticMoment: [ Abs: 0.21216  Tot: +0.13275 ]
	SubspaceRotationAdjust: set factor to 0.612
ElecMinimize: Iter:  10  G: -352.069358460962690  |grad|_K:  8.174e-07  alpha:  5.518e-01  linmin:  1.270e-04  t[s]:  16162.76
	Linear fluid (dielectric constant: 78.4, screening length: 8.12261 Bohr) occupying 0.723195 of unit cell:	Completed after 11 iterations at t[s]:  16211.77
	Linear fluid (dielectric constant: 78.4, screening length: 8.12261 Bohr) occupying 0.723182 of unit cell:	Completed after 7 iterations at t[s]:  16251.18
	FillingsUpdate:  mu: -0.160200000  nElectrons: 224.275775  magneticMoment: [ Abs: 0.18853  Tot: +0.11609 ]
	SubspaceRotationAdjust: set factor to 0.573
ElecMinimize: Iter:  11  G: -352.069419180034004  |grad|_K:  6.961e-07  alpha:  4.374e-01  linmin:  8.827e-05  t[s]:  16299.75
	Linear fluid (dielectric constant: 78.4, screening length: 8.12261 Bohr) occupying 0.723185 of unit cell:	Completed after 8 iterations at t[s]:  16345.43
	Linear fluid (dielectric constant: 78.4, screening length: 8.12261 Bohr) occupying 0.723184 of unit cell:	Completed after 3 iterations at t[s]:  16382.45
	FillingsUpdate:  mu: -0.160200000  nElectrons: 224.281159  magneticMoment: [ Abs: 0.16509  Tot: +0.10238 ]
	SubspaceRotationAdjust: set factor to 0.497
ElecMinimize: Iter:  12  G: -352.069450398706181  |grad|_K:  5.662e-07  alpha:  3.180e-01  linmin: -3.414e-05  t[s]:  16430.76
	Linear fluid (dielectric constant: 78.4, screening length: 8.12261 Bohr) occupying 0.723164 of unit cell:	Completed after 7 iterations at t[s]:  16475.56
	Linear fluid (dielectric constant: 78.4, screening length: 8.12261 Bohr) occupying 0.723155 of unit cell:	Completed after 3 iterations at t[s]:  16512.35
	FillingsUpdate:  mu: -0.160200000  nElectrons: 224.293477  magneticMoment: [ Abs: 0.13387  Tot: +0.08421 ]
	SubspaceRotationAdjust: set factor to 0.534
ElecMinimize: Iter:  13  G: -352.069480504983972  |grad|_K:  3.821e-07  alpha:  4.531e-01  linmin:  4.064e-04  t[s]:  16560.64
	Linear fluid (dielectric constant: 78.4, screening length: 8.12261 Bohr) occupying 0.723113 of unit cell:	Completed after 3 iterations at t[s]:  16603.00
	Linear fluid (dielectric constant: 78.4, screening length: 8.12261 Bohr) occupying 0.723083 of unit cell:	Completed after 2 iterations at t[s]:  16638.90
	FillingsUpdate:  mu: -0.160200000  nElectrons: 224.293537  magneticMoment: [ Abs: 0.09703  Tot: +0.06432 ]
	SubspaceRotationAdjust: set factor to 0.686
ElecMinimize: Iter:  14  G: -352.069502951286609  |grad|_K:  3.355e-07  alpha:  7.763e-01  linmin:  7.435e-05  t[s]:  16686.96
	Linear fluid (dielectric constant: 78.4, screening length: 8.12261 Bohr) occupying 0.723007 of unit cell:	Completed after 9 iterations at t[s]:  16733.26
	Linear fluid (dielectric constant: 78.4, screening length: 8.12261 Bohr) occupying 0.723042 of unit cell:	Completed after 7 iterations at t[s]:  16772.42
	FillingsUpdate:  mu: -0.160200000  nElectrons: 224.289405  magneticMoment: [ Abs: 0.07631  Tot: +0.05209 ]
	SubspaceRotationAdjust: set factor to 0.583
ElecMinimize: Iter:  15  G: -352.069512353266305  |grad|_K:  3.517e-07  alpha:  4.216e-01  linmin:  3.073e-05  t[s]:  16820.68
	Linear fluid (dielectric constant: 78.4, screening length: 8.12261 Bohr) occupying 0.722998 of unit cell:	Completed after 8 iterations at t[s]:  16866.22
	Linear fluid (dielectric constant: 78.4, screening length: 8.12261 Bohr) occupying 0.723013 of unit cell:	Completed after 3 iterations at t[s]:  16902.76
	FillingsUpdate:  mu: -0.160200000  nElectrons: 224.294688  magneticMoment: [ Abs: 0.05778  Tot: +0.03957 ]
	SubspaceRotationAdjust: set factor to 0.438
ElecMinimize: Iter:  16  G: -352.069519584178295  |grad|_K:  2.436e-07  alpha:  2.750e-01  linmin:  2.515e-05  t[s]:  16950.97
	Linear fluid (dielectric constant: 78.4, screening length: 8.12261 Bohr) occupying 0.723002 of unit cell:	Completed after 2 iterations at t[s]:  16992.71
	Linear fluid (dielectric constant: 78.4, screening length: 8.12261 Bohr) occupying 0.722994 of unit cell:	Completed after 2 iterations at t[s]:  17028.54
	FillingsUpdate:  mu: -0.160200000  nElectrons: 224.294971  magneticMoment: [ Abs: 0.03923  Tot: +0.02690 ]
	SubspaceRotationAdjust: set factor to 0.537
ElecMinimize: Iter:  17  G: -352.069525366136588  |grad|_K:  1.619e-07  alpha:  4.625e-01  linmin: -8.962e-05  t[s]:  17076.65
	Linear fluid (dielectric constant: 78.4, screening length: 8.12261 Bohr) occupying 0.722996 of unit cell:	Completed after 3 iterations at t[s]:  17119.09
	Linear fluid (dielectric constant: 78.4, screening length: 8.12261 Bohr) occupying 0.722996 of unit cell:	Completed after 0 iterations at t[s]:  17153.00
	FillingsUpdate:  mu: -0.160200000  nElectrons: 224.293993  magneticMoment: [ Abs: 0.02660  Tot: +0.01824 ]
	SubspaceRotationAdjust: set factor to 0.534
ElecMinimize: Iter:  18  G: -352.069528618433651  |grad|_K:  1.128e-07  alpha:  5.695e-01  linmin: -3.317e-04  t[s]:  17201.20
	Linear fluid (dielectric constant: 78.4, screening length: 8.12261 Bohr) occupying 0.723008 of unit cell:	Completed after 3 iterations at t[s]:  17243.41
	Linear fluid (dielectric constant: 78.4, screening length: 8.12261 Bohr) occupying 0.723005 of unit cell:	Completed after 2 iterations at t[s]:  17279.42
	FillingsUpdate:  mu: -0.160200000  nElectrons: 224.295333  magneticMoment: [ Abs: 0.02027  Tot: +0.01387 ]
	SubspaceRotationAdjust: set factor to 0.444
ElecMinimize: Iter:  19  G: -352.069529842245288  |grad|_K:  1.057e-07  alpha:  4.317e-01  linmin:  1.440e-04  t[s]:  17327.34
	Linear fluid (dielectric constant: 78.4, screening length: 8.12261 Bohr) occupying 0.723018 of unit cell:	Completed after 1 iterations at t[s]:  17367.82
	Linear fluid (dielectric constant: 78.4, screening length: 8.12261 Bohr) occupying 0.723016 of unit cell:	Completed after 0 iterations at t[s]:  17401.75
	FillingsUpdate:  mu: -0.160200000  nElectrons: 224.294256  magneticMoment: [ Abs: 0.01459  Tot: +0.01000 ]
	SubspaceRotationAdjust: set factor to 0.387
ElecMinimize: Iter:  20  G: -352.069530681519382  |grad|_K:  6.747e-08  alpha:  3.626e-01  linmin:  3.832e-04  t[s]:  17450.28
	Linear fluid (dielectric constant: 78.4, screening length: 8.12261 Bohr) occupying 0.723023 of unit cell:	Completed after 1 iterations at t[s]:  17491.13
	Linear fluid (dielectric constant: 78.4, screening length: 8.12261 Bohr) occupying 0.723026 of unit cell:	Completed after 0 iterations at t[s]:  17524.75
	FillingsUpdate:  mu: -0.160200000  nElectrons: 224.293900  magneticMoment: [ Abs: 0.01042  Tot: +0.00717 ]
	SubspaceRotationAdjust: set factor to 0.465
ElecMinimize: Iter:  21  G: -352.069531174242627  |grad|_K:  4.412e-08  alpha:  5.177e-01  linmin: -8.342e-04  t[s]:  17573.48
	Linear fluid (dielectric constant: 78.4, screening length: 8.12261 Bohr) occupying 0.723031 of unit cell:	Completed after 2 iterations at t[s]:  17614.95
	Linear fluid (dielectric constant: 78.4, screening length: 8.12261 Bohr) occupying 0.723030 of unit cell:	Completed after 0 iterations at t[s]:  17648.68
	FillingsUpdate:  mu: -0.160200000  nElectrons: 224.293541  magneticMoment: [ Abs: 0.00846  Tot: +0.00584 ]
	SubspaceRotationAdjust: set factor to 0.495
ElecMinimize: Iter:  22  G: -352.069531363223405  |grad|_K:  4.231e-08  alpha:  4.457e-01  linmin: -1.006e-03  t[s]:  17696.88
	Linear fluid (dielectric constant: 78.4, screening length: 8.12261 Bohr) occupying 0.723034 of unit cell:	Completed after 2 iterations at t[s]:  17738.35
[...]
disp C   0.000000000000000   0.000000000000000   0.000000000000000
disp C   0.000000000000000   0.000000000000000   0.000000000000000
disp C   0.000000000000000   0.000000000000000   0.000000000000000
disp C   0.000000000000000   0.000000000000000   0.000000000000000
disp C   0.000000000000000   0.000000000000000   0.000000000000000
disp C   0.000000000000000   0.000000000000000   0.000000000000000
disp C   0.000000000000000   0.000000000000000   0.000000000000000
disp C   0.000000000000000   0.000000000000000   0.000000000000000
disp C   0.000000000000000   0.000000000000000   0.000000000000000
disp C   0.000000000000000   0.000000000000000   0.000000000000000
disp C  -0.001564615838176  -0.000279937674679  -0.002203845818788
disp N   0.000000000000000   0.000000000000000   0.000000000000000
disp N   0.000000000000000   0.000000000000000   0.000000000000000
disp N   0.000000000000000   0.000000000000000   0.000000000000000
disp N   0.000000000000000   0.000000000000000   0.000000000000000
disp Ti   0.000000000000000   0.000000000000000   0.000000000000000
disp O   0.001304523169664  -0.001632414953284  -0.002053486148281
disp O  -0.000002788565533   0.001058058342700   0.003315246069670
disp H   0.007908723848993   0.007938638395343   0.001492375219519

Real mode 6:
Frequency: 0.005147 Eh [ 1130 cm^-1 ]
Degeneracy: 1 of 1
IR intensity: 0.7183 e^2/amu [ 700.2 km/mol ]
Displacements:
disp C   0.000000000000000   0.000000000000000   0.000000000000000
disp C   0.000000000000000   0.000000000000000   0.000000000000000
disp C   0.000000000000000   0.000000000000000   0.000000000000000
disp C   0.000000000000000   0.000000000000000   0.000000000000000
disp C   0.000000000000000   0.000000000000000   0.000000000000000
disp C   0.000000000000000   0.000000000000000   0.000000000000000
disp C   0.000000000000000   0.000000000000000   0.000000000000000
disp C   0.000000000000000   0.000000000000000   0.000000000000000
disp C   0.000000000000000   0.000000000000000   0.000000000000000
disp C   0.000000000000000   0.000000000000000   0.000000000000000
disp C   0.000000000000000   0.000000000000000   0.000000000000000
disp C   0.000000000000000   0.000000000000000   0.000000000000000
disp C   0.000000000000000   0.000000000000000   0.000000000000000
disp C   0.000000000000000   0.000000000000000   0.000000000000000
disp C   0.000000000000000   0.000000000000000   0.000000000000000
disp C   0.000000000000000   0.000000000000000   0.000000000000000
disp C   0.000000000000000   0.000000000000000   0.000000000000000
disp C   0.000000000000000   0.000000000000000   0.000000000000000
disp C   0.000000000000000   0.000000000000000   0.000000000000000
disp C   0.000000000000000   0.000000000000000   0.000000000000000
disp C   0.000000000000000   0.000000000000000   0.000000000000000
disp C   0.000000000000000   0.000000000000000   0.000000000000000
disp C   0.000000000000000   0.000000000000000   0.000000000000000
disp C   0.000000000000000   0.000000000000000   0.000000000000000
disp C   0.000000000000000   0.000000000000000   0.000000000000000
disp C   0.000000000000000   0.000000000000000   0.000000000000000
disp C   0.000000000000000   0.000000000000000   0.000000000000000
disp C   0.000000000000000   0.000000000000000   0.000000000000000
disp C   0.000000000000000   0.000000000000000   0.000000000000000
disp C   0.000000000000000   0.000000000000000   0.000000000000000
disp C   0.000000000000000   0.000000000000000   0.000000000000000
disp C   0.000000000000000   0.000000000000000   0.000000000000000
disp C   0.000000000000000   0.000000000000000   0.000000000000000
disp C   0.000000000000000   0.000000000000000   0.000000000000000
disp C   0.000000000000000   0.000000000000000   0.000000000000000
disp C   0.000000000000000   0.000000000000000   0.000000000000000
disp C   0.000000000000000   0.000000000000000   0.000000000000000
disp C   0.000000000000000   0.000000000000000   0.000000000000000
disp C   0.000000000000000   0.000000000000000   0.000000000000000
disp C   0.000000000000000   0.000000000000000   0.000000000000000
disp C   0.000000000000000   0.000000000000000   0.000000000000000
disp C   0.000000000000000   0.000000000000000   0.000000000000000
disp C   0.000000000000000   0.000000000000000   0.000000000000000
disp C   0.000000000000000   0.000000000000000   0.000000000000000
disp C  -0.001132813268889   0.000202768251845  -0.001133476032782
disp N   0.000000000000000   0.000000000000000   0.000000000000000
disp N   0.000000000000000   0.000000000000000   0.000000000000000
disp N   0.000000000000000   0.000000000000000   0.000000000000000
disp N   0.000000000000000   0.000000000000000   0.000000000000000
disp Ti   0.000000000000000   0.000000000000000   0.000000000000000
disp O  -0.001413063495177   0.000992107538586  -0.000014292448439
disp O   0.002161210773040  -0.001676366665381  -0.000373236509104
disp H   0.000072907014800   0.003057019753871   0.018317575772878

Real mode 7:
Frequency: 0.005973 Eh [ 1311 cm^-1 ]
Degeneracy: 1 of 1
IR intensity: 3.6487 e^2/amu [ 3557.0 km/mol ]
Displacements:
disp C   0.000000000000000   0.000000000000000   0.000000000000000
disp C   0.000000000000000   0.000000000000000   0.000000000000000
disp C   0.000000000000000   0.000000000000000   0.000000000000000
disp C   0.000000000000000   0.000000000000000   0.000000000000000
disp C   0.000000000000000   0.000000000000000   0.000000000000000
disp C   0.000000000000000   0.000000000000000   0.000000000000000
disp C   0.000000000000000   0.000000000000000   0.000000000000000
disp C   0.000000000000000   0.000000000000000   0.000000000000000
disp C   0.000000000000000   0.000000000000000   0.000000000000000
disp C   0.000000000000000   0.000000000000000   0.000000000000000
disp C   0.000000000000000   0.000000000000000   0.000000000000000
disp C   0.000000000000000   0.000000000000000   0.000000000000000
disp C   0.000000000000000   0.000000000000000   0.000000000000000
disp C   0.000000000000000   0.000000000000000   0.000000000000000
disp C   0.000000000000000   0.000000000000000   0.000000000000000
disp C   0.000000000000000   0.000000000000000   0.000000000000000
disp C   0.000000000000000   0.000000000000000   0.000000000000000
disp C   0.000000000000000   0.000000000000000   0.000000000000000
disp C   0.000000000000000   0.000000000000000   0.000000000000000
disp C   0.000000000000000   0.000000000000000   0.000000000000000
disp C   0.000000000000000   0.000000000000000   0.000000000000000
disp C   0.000000000000000   0.000000000000000   0.000000000000000
disp C   0.000000000000000   0.000000000000000   0.000000000000000
disp C   0.000000000000000   0.000000000000000   0.000000000000000
disp C   0.000000000000000   0.000000000000000   0.000000000000000
disp C   0.000000000000000   0.000000000000000   0.000000000000000
disp C   0.000000000000000   0.000000000000000   0.000000000000000
disp C   0.000000000000000   0.000000000000000   0.000000000000000
disp C   0.000000000000000   0.000000000000000   0.000000000000000
disp C   0.000000000000000   0.000000000000000   0.000000000000000
disp C   0.000000000000000   0.000000000000000   0.000000000000000
disp C   0.000000000000000   0.000000000000000   0.000000000000000
disp C   0.000000000000000   0.000000000000000   0.000000000000000
disp C   0.000000000000000   0.000000000000000   0.000000000000000
disp C   0.000000000000000   0.000000000000000   0.000000000000000
disp C   0.000000000000000   0.000000000000000   0.000000000000000
disp C   0.000000000000000   0.000000000000000   0.000000000000000
disp C   0.000000000000000   0.000000000000000   0.000000000000000
disp C   0.000000000000000   0.000000000000000   0.000000000000000
disp C   0.000000000000000   0.000000000000000   0.000000000000000
disp C   0.000000000000000   0.000000000000000   0.000000000000000
disp C   0.000000000000000   0.000000000000000   0.000000000000000
disp C   0.000000000000000   0.000000000000000   0.000000000000000
disp C   0.000000000000000   0.000000000000000   0.000000000000000
disp C   0.001380406096647   0.000160504706774   0.004729006873177
disp N   0.000000000000000   0.000000000000000   0.000000000000000
disp N   0.000000000000000   0.000000000000000   0.000000000000000
disp N   0.000000000000000   0.000000000000000   0.000000000000000
disp N   0.000000000000000   0.000000000000000   0.000000000000000
disp Ti   0.000000000000000   0.000000000000000   0.000000000000000
disp O  -0.000076447898811  -0.000603906124059  -0.003195034364845
disp O  -0.001045035390872   0.000713843439155  -0.000197059822786
disp H   0.001291105088764   0.001137493903196   0.007604624098629

Real mode 8:
Frequency: 0.006926 Eh [ 1520 cm^-1 ]
Degeneracy: 1 of 1
IR intensity: 0.0697 e^2/amu [ 67.9 km/mol ]
Displacements:
disp C   0.000000000000000   0.000000000000000   0.000000000000000
disp C   0.000000000000000   0.000000000000000   0.000000000000000
disp C   0.000000000000000   0.000000000000000   0.000000000000000
disp C   0.000000000000000   0.000000000000000   0.000000000000000
disp C   0.000000000000000   0.000000000000000   0.000000000000000
disp C   0.000000000000000   0.000000000000000   0.000000000000000
disp C   0.000000000000000   0.000000000000000   0.000000000000000
disp C   0.000000000000000   0.000000000000000   0.000000000000000
disp C   0.000000000000000   0.000000000000000   0.000000000000000
disp C   0.000000000000000   0.000000000000000   0.000000000000000
disp C   0.000000000000000   0.000000000000000   0.000000000000000
disp C   0.000000000000000   0.000000000000000   0.000000000000000
disp C   0.000000000000000   0.000000000000000   0.000000000000000
disp C   0.000000000000000   0.000000000000000   0.000000000000000
disp C   0.000000000000000   0.000000000000000   0.000000000000000
disp C   0.000000000000000   0.000000000000000   0.000000000000000
disp C   0.000000000000000   0.000000000000000   0.000000000000000
disp C   0.000000000000000   0.000000000000000   0.000000000000000
disp C   0.000000000000000   0.000000000000000   0.000000000000000
disp C   0.000000000000000   0.000000000000000   0.000000000000000
disp C   0.000000000000000   0.000000000000000   0.000000000000000
disp C   0.000000000000000   0.000000000000000   0.000000000000000
disp C   0.000000000000000   0.000000000000000   0.000000000000000
disp C   0.000000000000000   0.000000000000000   0.000000000000000
disp C   0.000000000000000   0.000000000000000   0.000000000000000
disp C   0.000000000000000   0.000000000000000   0.000000000000000
disp C   0.000000000000000   0.000000000000000   0.000000000000000
disp C   0.000000000000000   0.000000000000000   0.000000000000000
disp C   0.000000000000000   0.000000000000000   0.000000000000000
disp C   0.000000000000000   0.000000000000000   0.000000000000000
disp C   0.000000000000000   0.000000000000000   0.000000000000000
disp C   0.000000000000000   0.000000000000000   0.000000000000000
disp C   0.000000000000000   0.000000000000000   0.000000000000000
disp C   0.000000000000000   0.000000000000000   0.000000000000000
disp C   0.000000000000000   0.000000000000000   0.000000000000000
disp C   0.000000000000000   0.000000000000000   0.000000000000000
disp C   0.000000000000000   0.000000000000000   0.000000000000000
disp C   0.000000000000000   0.000000000000000   0.000000000000000
disp C   0.000000000000000   0.000000000000000   0.000000000000000
disp C   0.000000000000000   0.000000000000000   0.000000000000000
disp C   0.000000000000000   0.000000000000000   0.000000000000000
disp C   0.000000000000000   0.000000000000000   0.000000000000000
disp C   0.000000000000000   0.000000000000000   0.000000000000000
disp C   0.000000000000000   0.000000000000000   0.000000000000000
disp C   0.003888617692583  -0.003038734432334  -0.002230861015136
disp N   0.000000000000000   0.000000000000000   0.000000000000000
disp N   0.000000000000000   0.000000000000000   0.000000000000000
disp N   0.000000000000000   0.000000000000000   0.000000000000000
disp N   0.000000000000000   0.000000000000000   0.000000000000000
disp Ti   0.000000000000000   0.000000000000000   0.000000000000000
disp O  -0.000620650609372   0.000591473914665   0.000738779919608
disp O  -0.002289861299521   0.001632971030915   0.000124751005470
disp H   0.000236332364777   0.001240227181102   0.006855332706445

Real mode 9:
Frequency: 0.016611 Eh [ 3646 cm^-1 ]
Degeneracy: 1 of 1
IR intensity: 0.3912 e^2/amu [ 381.4 km/mol ]
Displacements:
disp C   0.000000000000000   0.000000000000000   0.000000000000000
disp C   0.000000000000000   0.000000000000000   0.000000000000000
disp C   0.000000000000000   0.000000000000000   0.000000000000000
disp C   0.000000000000000   0.000000000000000   0.000000000000000
disp C   0.000000000000000   0.000000000000000   0.000000000000000
disp C   0.000000000000000   0.000000000000000   0.000000000000000
disp C   0.000000000000000   0.000000000000000   0.000000000000000
disp C   0.000000000000000   0.000000000000000   0.000000000000000
disp C   0.000000000000000   0.000000000000000   0.000000000000000
disp C   0.000000000000000   0.000000000000000   0.000000000000000
disp C   0.000000000000000   0.000000000000000   0.000000000000000
disp C   0.000000000000000   0.000000000000000   0.000000000000000
disp C   0.000000000000000   0.000000000000000   0.000000000000000
disp C   0.000000000000000   0.000000000000000   0.000000000000000
disp C   0.000000000000000   0.000000000000000   0.000000000000000
disp C   0.000000000000000   0.000000000000000   0.000000000000000
disp C   0.000000000000000   0.000000000000000   0.000000000000000
disp C   0.000000000000000   0.000000000000000   0.000000000000000
disp C   0.000000000000000   0.000000000000000   0.000000000000000
disp C   0.000000000000000   0.000000000000000   0.000000000000000
disp C   0.000000000000000   0.000000000000000   0.000000000000000
disp C   0.000000000000000   0.000000000000000   0.000000000000000
disp C   0.000000000000000   0.000000000000000   0.000000000000000
disp C   0.000000000000000   0.000000000000000   0.000000000000000
disp C   0.000000000000000   0.000000000000000   0.000000000000000
disp C   0.000000000000000   0.000000000000000   0.000000000000000
disp C   0.000000000000000   0.000000000000000   0.000000000000000
disp C   0.000000000000000   0.000000000000000   0.000000000000000
disp C   0.000000000000000   0.000000000000000   0.000000000000000
disp C   0.000000000000000   0.000000000000000   0.000000000000000
disp C   0.000000000000000   0.000000000000000   0.000000000000000
disp C   0.000000000000000   0.000000000000000   0.000000000000000
disp C   0.000000000000000   0.000000000000000   0.000000000000000
disp C   0.000000000000000   0.000000000000000   0.000000000000000
disp C   0.000000000000000   0.000000000000000   0.000000000000000
disp C   0.000000000000000   0.000000000000000   0.000000000000000
disp C   0.000000000000000   0.000000000000000   0.000000000000000
disp C   0.000000000000000   0.000000000000000   0.000000000000000
disp C   0.000000000000000   0.000000000000000   0.000000000000000
disp C   0.000000000000000   0.000000000000000   0.000000000000000
disp C   0.000000000000000   0.000000000000000   0.000000000000000
disp C   0.000000000000000   0.000000000000000   0.000000000000000
disp C   0.000000000000000   0.000000000000000   0.000000000000000
disp C   0.000000000000000   0.000000000000000   0.000000000000000
disp C   0.000053751848408  -0.000040801094873  -0.000009232213389
disp N   0.000000000000000   0.000000000000000   0.000000000000000
disp N   0.000000000000000   0.000000000000000   0.000000000000000
disp N   0.000000000000000   0.000000000000000   0.000000000000000
disp N   0.000000000000000   0.000000000000000   0.000000000000000
disp Ti   0.000000000000000   0.000000000000000   0.000000000000000
disp O   0.001154558590088  -0.000806144588475  -0.000009383307655
disp O  -0.000034878853571   0.000030704043965  -0.000007071129827
disp H  -0.018614523606763   0.012890331307318   0.000175363172950

Vibrational free energy components at T = 298 K:
	ZPE:          0.022388
	Evib:         0.023990
	TSvib:        0.002556
	Avib:         0.021435


Dumping 'jdft.n_up' ... done
Dumping 'jdft.n_dn' ... done
Dumping 'jdft.tau_up' ... done
Dumping 'jdft.tau_dn' ... done
Dumping 'jdft.eigenvals' ... done
Dumping 'jdft.eigStats' ... 
	eMin: -2.299383 at state 0 ( [ +0.000000 +0.000000 +0.000000 ] spin 1 )
	HOMO: -0.160861 at state 17 ( [ -0.333333 -0.333333 +0.000000 ] spin -1 )
	mu  : -0.160200
	LUMO: -0.151262 at state 6 ( [ -0.333333 +0.000000 +0.000000 ] spin 1 )
	eMax: +0.017160 at state 8 ( [ -0.333333 -0.333333 +0.000000 ] spin 1 )
	HOMO-LUMO gap: +0.009599
	Optical gap  : +0.012753 at state 4 ( [ +0.333333 +0.333333 +0.000000 ] spin 1 )
Dumping 'jdft.kPts' ... done
Dumping 'jdft.dosUp' ... done.
Dumping 'jdft.dosDn' ... done.
End date and time: Thu Nov 10 04:03:21 2022  (Duration: 0-9:04:43.65)
Done!

PROFILER:             augmentDensityGrid     0.576404 +/-     0.694247 s, 2580 calls,   1487.122731 s total
PROFILER:         augmentDensityGridGrad     0.431389 +/-     0.542735 s, 1395 calls,    601.786979 s total
PROFILER:        augmentDensitySpherical     0.000343 +/-     0.000488 s, 2580 calls,      0.884236 s total
PROFILER:    augmentDensitySphericalGrad     0.000341 +/-     0.000500 s, 1750 calls,      0.596155 s total
PROFILER:                 augmentOverlap     1.265446 +/-     1.927790 s, 5275 calls,   6675.229210 s total
PROFILER:        ColumnBundle::randomize     0.005075 +/-     0.000000 s,    1 calls,      0.005075 s total
PROFILER:                     diagouterI    14.752424 +/-     3.035842 s,  519 calls,   7656.508096 s total
PROFILER:              EdensityAndVscloc     4.892211 +/-     4.584979 s,  517 calls,   2529.273029 s total
PROFILER:                     EnlAndGrad     0.001082 +/-     0.001738 s, 2720 calls,      2.943243 s total
PROFILER:            ExCorrCommunication     0.069203 +/-     0.094542 s, 3247 calls,    224.702518 s total
PROFILER:               ExCorrFunctional     0.024791 +/-     0.005094 s,  557 calls,     13.808405 s total
PROFILER:                    ExCorrTotal     0.649172 +/-     0.155737 s,  557 calls,    361.588840 s total
PROFILER:                   Idag_DiagV_I    25.485217 +/-     9.697577 s,  337 calls,   8588.518103 s total
PROFILER:                    initWeights     1.907572 +/-     0.000000 s,    1 calls,      1.907572 s total
PROFILER:                    inv(matrix)     0.001842 +/-     0.000695 s,  457 calls,      0.841736 s total
PROFILER:            matrix::diagonalize     0.006964 +/-     0.004350 s,  836 calls,      5.821990 s total
PROFILER:                    matrix::set     0.000002 +/-     0.000002 s, 47920 calls,      0.079901 s total
PROFILER:            orthoMatrix(matrix)     0.001244 +/-     0.000620 s,  516 calls,      0.642023 s total
PROFILER:     RadialFunctionR::transform     0.003002 +/-     0.009202 s,  151 calls,      0.453340 s total
PROFILER:                    reduceKmesh     0.000000 +/-     0.000000 s,    1 calls,      0.000000 s total
PROFILER:   VanDerWaalsD3::energyAndGrad     0.029733 +/-     0.001119 s,   27 calls,      0.802794 s total
PROFILER:               WavefunctionDrag    23.496953 +/-     0.584098 s,   13 calls,    305.460393 s total
PROFILER:                            Y*M     0.587921 +/-     0.765875 s, 9119 calls,   5361.255710 s total
PROFILER:                          Y1^Y2     0.589841 +/-     0.783302 s, 6701 calls,   3952.526149 s total

MEMUSAGE:                   ColumnBundle     1.333771 GB
MEMUSAGE:        complexScalarFieldTilde     0.049438 GB
MEMUSAGE:                    IndexArrays     0.023178 GB
MEMUSAGE:                         matrix     0.020714 GB
MEMUSAGE:                           misc     0.051230 GB
MEMUSAGE:                    ScalarField     0.395508 GB
MEMUSAGE:               ScalarFieldTilde     0.262436 GB
MEMUSAGE:                          Total     1.650819 GB
