
*************** JDFTx 1.7.0 (git hash 5f12716a) ***************

Start date and time: Mon Aug  8 13:01:33 2022
Executable /home/nisi6161/jdftx_alpine/build/jdftx with command-line: -i in
Running on hosts (process indices):  c3cpu-a2-u19-2.rc.int.colorado.edu (0-17)
Divided in process groups (process indices):  0 (0)  1 (1)  2 (2)  3 (3)  4 (4)  5 (5)  6 (6)  7 (7)  8 (8)  9 (9)  10 (10)  11 (11)  12 (12)  13 (13)  14 (14)  15 (15)  16 (16)  17 (17)
Resource initialization completed at t[s]:      0.00
Run totals: 18 processes, 64 threads, 0 GPUs


Input parsed successfully to the following command list (including defaults):

basis kpoint-dependent
converge-empty-states yes
coords-type Cartesian
core-overlap-check none
coulomb-interaction Periodic
davidson-band-ratio 1.1
density-of-states Etol 1.000000e-06 Esigma 1.000000e-03 \
		Complete \
	Total \
	OrthoOrbital C 1   s \
	OrthoOrbital C 1   p \
	OrthoOrbital C 1   px \
	OrthoOrbital C 1   py \
	OrthoOrbital C 1   pz \
	OrthoOrbital C 2   s \
	OrthoOrbital C 2   p \
	OrthoOrbital C 2   px \
	OrthoOrbital C 2   py \
	OrthoOrbital C 2   pz \
	OrthoOrbital C 3   s \
	OrthoOrbital C 3   p \
	OrthoOrbital C 3   px \
	OrthoOrbital C 3   py \
	OrthoOrbital C 3   pz \
	OrthoOrbital C 4   s \
	OrthoOrbital C 4   p \
	OrthoOrbital C 4   px \
	OrthoOrbital C 4   py \
	OrthoOrbital C 4   pz \
	OrthoOrbital C 5   s \
	OrthoOrbital C 5   p \
	OrthoOrbital C 5   px \
	OrthoOrbital C 5   py \
	OrthoOrbital C 5   pz \
	OrthoOrbital C 6   s \
	OrthoOrbital C 6   p \
	OrthoOrbital C 6   px \
	OrthoOrbital C 6   py \
	OrthoOrbital C 6   pz \
	OrthoOrbital C 7   s \
	OrthoOrbital C 7   p \
	OrthoOrbital C 7   px \
	OrthoOrbital C 7   py \
	OrthoOrbital C 7   pz \
	OrthoOrbital C 8   s \
	OrthoOrbital C 8   p \
	OrthoOrbital C 8   px \
	OrthoOrbital C 8   py \
	OrthoOrbital C 8   pz \
	OrthoOrbital C 9   s \
	OrthoOrbital C 9   p \
	OrthoOrbital C 9   px \
	OrthoOrbital C 9   py \
	OrthoOrbital C 9   pz \
	OrthoOrbital C 10   s \
	OrthoOrbital C 10   p \
	OrthoOrbital C 10   px \
	OrthoOrbital C 10   py \
	OrthoOrbital C 10   pz \
	OrthoOrbital C 11   s \
	OrthoOrbital C 11   p \
	OrthoOrbital C 11   px \
	OrthoOrbital C 11   py \
	OrthoOrbital C 11   pz \
	OrthoOrbital C 12   s \
	OrthoOrbital C 12   p \
	OrthoOrbital C 12   px \
	OrthoOrbital C 12   py \
	OrthoOrbital C 12   pz \
	OrthoOrbital C 13   s \
	OrthoOrbital C 13   p \
	OrthoOrbital C 13   px \
	OrthoOrbital C 13   py \
	OrthoOrbital C 13   pz \
	OrthoOrbital C 14   s \
	OrthoOrbital C 14   p \
	OrthoOrbital C 14   px \
	OrthoOrbital C 14   py \
	OrthoOrbital C 14   pz \
	OrthoOrbital C 15   s \
	OrthoOrbital C 15   p \
	OrthoOrbital C 15   px \
	OrthoOrbital C 15   py \
	OrthoOrbital C 15   pz \
	OrthoOrbital C 16   s \
	OrthoOrbital C 16   p \
	OrthoOrbital C 16   px \
	OrthoOrbital C 16   py \
	OrthoOrbital C 16   pz \
	OrthoOrbital C 17   s \
	OrthoOrbital C 17   p \
	OrthoOrbital C 17   px \
	OrthoOrbital C 17   py \
	OrthoOrbital C 17   pz \
	OrthoOrbital C 18   s \
	OrthoOrbital C 18   p \
	OrthoOrbital C 18   px \
	OrthoOrbital C 18   py \
	OrthoOrbital C 18   pz \
	OrthoOrbital C 19   s \
	OrthoOrbital C 19   p \
	OrthoOrbital C 19   px \
	OrthoOrbital C 19   py \
	OrthoOrbital C 19   pz \
	OrthoOrbital C 20   s \
	OrthoOrbital C 20   p \
	OrthoOrbital C 20   px \
	OrthoOrbital C 20   py \
	OrthoOrbital C 20   pz \
	OrthoOrbital C 21   s \
	OrthoOrbital C 21   p \
	OrthoOrbital C 21   px \
	OrthoOrbital C 21   py \
	OrthoOrbital C 21   pz \
	OrthoOrbital C 22   s \
	OrthoOrbital C 22   p \
	OrthoOrbital C 22   px \
	OrthoOrbital C 22   py \
	OrthoOrbital C 22   pz \
	OrthoOrbital C 23   s \
	OrthoOrbital C 23   p \
	OrthoOrbital C 23   px \
	OrthoOrbital C 23   py \
	OrthoOrbital C 23   pz \
	OrthoOrbital C 24   s \
	OrthoOrbital C 24   p \
	OrthoOrbital C 24   px \
	OrthoOrbital C 24   py \
	OrthoOrbital C 24   pz \
	OrthoOrbital C 25   s \
	OrthoOrbital C 25   p \
	OrthoOrbital C 25   px \
	OrthoOrbital C 25   py \
	OrthoOrbital C 25   pz \
	OrthoOrbital C 26   s \
	OrthoOrbital C 26   p \
	OrthoOrbital C 26   px \
	OrthoOrbital C 26   py \
	OrthoOrbital C 26   pz \
	OrthoOrbital C 27   s \
	OrthoOrbital C 27   p \
	OrthoOrbital C 27   px \
	OrthoOrbital C 27   py \
	OrthoOrbital C 27   pz \
	OrthoOrbital C 28   s \
	OrthoOrbital C 28   p \
	OrthoOrbital C 28   px \
	OrthoOrbital C 28   py \
	OrthoOrbital C 28   pz \
	OrthoOrbital C 29   s \
	OrthoOrbital C 29   p \
	OrthoOrbital C 29   px \
	OrthoOrbital C 29   py \
	OrthoOrbital C 29   pz \
	OrthoOrbital C 30   s \
	OrthoOrbital C 30   p \
	OrthoOrbital C 30   px \
	OrthoOrbital C 30   py \
	OrthoOrbital C 30   pz \
	OrthoOrbital C 31   s \
	OrthoOrbital C 31   p \
	OrthoOrbital C 31   px \
	OrthoOrbital C 31   py \
	OrthoOrbital C 31   pz \
	OrthoOrbital C 32   s \
	OrthoOrbital C 32   p \
	OrthoOrbital C 32   px \
	OrthoOrbital C 32   py \
	OrthoOrbital C 32   pz \
	OrthoOrbital C 33   s \
	OrthoOrbital C 33   p \
	OrthoOrbital C 33   px \
	OrthoOrbital C 33   py \
	OrthoOrbital C 33   pz \
	OrthoOrbital C 34   s \
	OrthoOrbital C 34   p \
	OrthoOrbital C 34   px \
	OrthoOrbital C 34   py \
	OrthoOrbital C 34   pz \
	OrthoOrbital C 35   s \
	OrthoOrbital C 35   p \
	OrthoOrbital C 35   px \
	OrthoOrbital C 35   py \
	OrthoOrbital C 35   pz \
	OrthoOrbital C 36   s \
	OrthoOrbital C 36   p \
	OrthoOrbital C 36   px \
	OrthoOrbital C 36   py \
	OrthoOrbital C 36   pz \
	OrthoOrbital C 37   s \
	OrthoOrbital C 37   p \
	OrthoOrbital C 37   px \
	OrthoOrbital C 37   py \
	OrthoOrbital C 37   pz \
	OrthoOrbital C 38   s \
	OrthoOrbital C 38   p \
	OrthoOrbital C 38   px \
	OrthoOrbital C 38   py \
	OrthoOrbital C 38   pz \
	OrthoOrbital C 39   s \
	OrthoOrbital C 39   p \
	OrthoOrbital C 39   px \
	OrthoOrbital C 39   py \
	OrthoOrbital C 39   pz \
	OrthoOrbital C 40   s \
	OrthoOrbital C 40   p \
	OrthoOrbital C 40   px \
	OrthoOrbital C 40   py \
	OrthoOrbital C 40   pz \
	OrthoOrbital C 41   s \
	OrthoOrbital C 41   p \
	OrthoOrbital C 41   px \
	OrthoOrbital C 41   py \
	OrthoOrbital C 41   pz \
	OrthoOrbital C 42   s \
	OrthoOrbital C 42   p \
	OrthoOrbital C 42   px \
	OrthoOrbital C 42   py \
	OrthoOrbital C 42   pz \
	OrthoOrbital C 43   s \
	OrthoOrbital C 43   p \
	OrthoOrbital C 43   px \
	OrthoOrbital C 43   py \
	OrthoOrbital C 43   pz \
	OrthoOrbital C 44   s \
	OrthoOrbital C 44   p \
	OrthoOrbital C 44   px \
	OrthoOrbital C 44   py \
	OrthoOrbital C 44   pz \
	OrthoOrbital C 45   s \
	OrthoOrbital C 45   p \
	OrthoOrbital C 45   px \
	OrthoOrbital C 45   py \
	OrthoOrbital C 45   pz \
	OrthoOrbital N 1   s \
	OrthoOrbital N 1   p \
	OrthoOrbital N 1   px \
	OrthoOrbital N 1   py \
	OrthoOrbital N 1   pz \
	OrthoOrbital N 2   s \
	OrthoOrbital N 2   p \
	OrthoOrbital N 2   px \
	OrthoOrbital N 2   py \
	OrthoOrbital N 2   pz \
	OrthoOrbital N 3   s \
	OrthoOrbital N 3   p \
	OrthoOrbital N 3   px \
	OrthoOrbital N 3   py \
	OrthoOrbital N 3   pz \
	OrthoOrbital N 4   s \
	OrthoOrbital N 4   p \
	OrthoOrbital N 4   px \
	OrthoOrbital N 4   py \
	OrthoOrbital N 4   pz \
	OrthoOrbital Ti 1   s \
	OrthoOrbital Ti 1   p \
	OrthoOrbital Ti 1   px \
	OrthoOrbital Ti 1   py \
	OrthoOrbital Ti 1   pz \
	OrthoOrbital Ti 1   d \
	OrthoOrbital Ti 1   dxy \
	OrthoOrbital Ti 1   dyz \
	OrthoOrbital Ti 1   dz2 \
	OrthoOrbital Ti 1   dxz \
	OrthoOrbital Ti 1   dx2-y2 \
	OrthoOrbital O 1   s \
	OrthoOrbital O 1   p \
	OrthoOrbital O 1   px \
	OrthoOrbital O 1   py \
	OrthoOrbital O 1   pz \
	OrthoOrbital O 2   s \
	OrthoOrbital O 2   p \
	OrthoOrbital O 2   px \
	OrthoOrbital O 2   py \
	OrthoOrbital O 2   pz \
	OrthoOrbital H 1   s \
	OrthoOrbital H 2   s
dump End ElecDensity KEdensity BandEigs EigStats RhoAtom DOS Kpoints
dump Ionic State IonicPositions Lattice EigStats Ecomponents
dump 
dump 
dump 
dump 
dump 
dump 
dump 
dump 
dump-name jdft.$VAR
elec-cutoff 20
elec-eigen-algo Davidson
elec-ex-corr gga-PBE
elec-initial-magnetization 0.000000 no
elec-n-bands 136
elec-smearing Fermi 0.001
electronic-minimize  \
	dirUpdateScheme      FletcherReeves \
	linminMethod         DirUpdateRecommended \
	nIterations          100 \
	history              15 \
	knormThreshold       0 \
	energyDiffThreshold  1e-07 \
	nEnergyDiff          2 \
	alphaTstart          1 \
	alphaTmin            1e-10 \
	updateTestStepSize   yes \
	alphaTreduceFactor   0.1 \
	alphaTincreaseFactor 3 \
	nAlphaAdjustMax      3 \
	wolfeEnergy          0.0001 \
	wolfeGradient        0.9 \
	fdTest               no
exchange-regularization WignerSeitzTruncated
fluid LinearPCM 298.000000 1.013250
fluid-anion F- 0.5 MeanFieldLJ \
	epsBulk 1 \
	pMol 0 \
	epsInf 1 \
	Pvap 0 \
	sigmaBulk 0 \
	Rvdw 2.24877 \
	Res 0 \
	tauNuc 343133
fluid-cation Na+ 0.5 MeanFieldLJ \
	epsBulk 1 \
	pMol 0 \
	epsInf 1 \
	Pvap 0 \
	sigmaBulk 0 \
	Rvdw 2.19208 \
	Res 0 \
	tauNuc 343133
fluid-ex-corr lda-TF lda-PZ
fluid-gummel-loop 10 1.000000e-05
fluid-minimize  \
	dirUpdateScheme      PolakRibiere \
	linminMethod         DirUpdateRecommended \
	nIterations          400 \
	history              15 \
	knormThreshold       1e-11 \
	energyDiffThreshold  0 \
	nEnergyDiff          2 \
	alphaTstart          1 \
	alphaTmin            1e-10 \
	updateTestStepSize   yes \
	alphaTreduceFactor   0.1 \
	alphaTincreaseFactor 3 \
	nAlphaAdjustMax      6 \
	wolfeEnergy          0.0001 \
	wolfeGradient        0.9 \
	fdTest               no
fluid-solvent H2O 55.338 ScalarEOS \
	epsBulk 78.4 \
	pMol 0.92466 \
	epsInf 1.77 \
	Pvap 1.06736e-10 \
	sigmaBulk 4.62e-05 \
	Rvdw 2.61727 \
	Res 1.42 \
	tauNuc 343133 \
	poleEl 15 7 1
forces-output-coords Positions
initial-state jdft.$VAR
ion C  -0.080713594273591   0.080622969633305  43.299784760966617 1
ion C  20.962825057226400   4.045601320725081  43.222466021625273 1
ion C  18.621188195891257   8.052618804183849  43.063150770868234 1
ion C  -7.118279267746162  12.056857888735561  43.082997717578365 1
ion C  -9.444461393041971  16.063685428664353  43.248482738350027 1
ion C   4.608886176910676   0.188510145485877   0.103271042605588 1
ion C   2.192545066783459   4.184812958575778   0.212667346230765 1
ion C  -0.206615546844898   8.029055552497333   0.090603695886282 1
ion C  -2.507370252975252  12.041393140253636  43.180751718599154 1
ion C  -4.796325680182500  16.069297862004412  43.222205111200871 1
ion C   9.296656462209029   0.094580998406461  43.299491315578990 1
ion C   7.014265066754746   4.197609965090984   0.230070480659765 1
ion C  -0.108078758331850  15.987963152345610   0.079684649056287 1
ion C   2.269352889056563  19.942564633434138  43.324929280304850 1
ion C  11.686346785176381   4.041549779573500  43.257324208781029 1
ion C   9.414903170089525   8.039649559785754   0.170418216851763 1
ion C   4.596713969354541  15.846324423947120   0.288117798402760 1
ion C   6.918778569414210  19.943150920734688  43.316996158444439 1
ion C  16.324894361746260   4.024294701732576  43.161364963458055 1
ion C  14.020861309501310   8.049642524440769  43.103044782544913 1
ion C  11.709720267442478  12.051534244327764  43.267387093101405 1
ion C   9.301533302738735  15.988493543410705   0.129290999590077 1
ion C  -0.099889978110948   2.757820364018539   0.049414865087950 1
ion C  -2.504556842069767   6.702110288569465  43.170826293260482 1
ion C  -4.816931854915193  10.706188672153800  43.066496342136432 1
ion C  -7.119423348647358  14.729407660633878  43.170659955374703 1
ion C  -9.448336792422927  18.749478646461252  43.308068740252537 1
ion C   4.605182573075097   2.909076546143199   0.229992282740991 1
ion C  -0.208667601152960  10.718636466819815   0.107540335271740 1
ion C  -2.479901265277975  14.715267957410855  43.240139021521713 1
ion C  -4.798364958812218  18.755394054736275  43.302333657911426 1
ion C   9.311931282897156   2.772174279773311   0.066847944515909 1
ion C   2.188517046991940  14.565428725215444   0.264224129833866 1
ion C  -0.093871760539296  18.665319225639887  43.312712041195745 1
ion C  14.001790347829278   2.686071637460163  43.236047142311833 1
ion C  11.711823901022759   6.715560896668539  43.227997519616068 1
ion C   9.414244166379545  10.725799975943138   0.205580734611167 1
ion C   7.005946265661002  14.561809813874413   0.312133585897827 1
ion C   4.594873031435041  18.563631885268546   0.140088059528669 1
ion C  18.649386004684445   2.686853775829974  43.215206167757415 1
ion C  16.321752918348544   6.697803515260726  43.071548497851268 1
ion C  14.019080658429163  10.720263677352913  43.114934844371007 1
ion C  11.678024718177214  14.724081641187603  43.305496617813347 1
ion C   9.281628854549798  18.665787040720168  43.321456690135044 1
ion C   4.570768358983726   9.071015539887494   5.472419091180233 1
ion N   2.052199431092752  11.981144309081786   0.430783847372423 1
ion N   7.146384455093861  11.978003416819712   0.513548559319782 1
ion N   2.057496102505937   6.764956559352069   0.377814878275565 1
ion N   7.146025097115255   6.780897363797830   0.437731165661306 1
ion Ti   4.565711176103585   9.358847907373988   1.719167397264017 1
ion O   4.577569864782676   8.914592813138116   7.713814823256667 1
ion O   7.005660475021124   2.632971317841478   6.404787113561904 1
ion H   8.637729348990868   3.518231926856906   6.473274583229610 1
ion H   6.306666165878548   3.099077580719777   4.745983201196660 1
ion-species /projects/musgravc/apps/jdftx-1.6.0/build/pseudopotentials/GBRV_v1.5/$ID_pbe_v1.uspp
ion-species /projects/musgravc/apps/jdftx-1.6.0/build/pseudopotentials/GBRV_v1.5/$ID_pbe_v1.2.uspp
ion-species /projects/musgravc/apps/jdftx-1.6.0/build/pseudopotentials/GBRV_v1.5/$ID_pbe_v1.4.uspp
ion-species /projects/musgravc/apps/jdftx-1.6.0/build/pseudopotentials/GBRV_v1.5/$ID_pbe_v1.5.uspp
ion-width Ecut
ionic-minimize  \
	dirUpdateScheme      L-BFGS \
	linminMethod         DirUpdateRecommended \
	nIterations          100 \
	history              15 \
	knormThreshold       0.0001 \
	energyDiffThreshold  1e-06 \
	nEnergyDiff          2 \
	alphaTstart          1 \
	alphaTmin            1e-10 \
	updateTestStepSize   yes \
	alphaTreduceFactor   0.1 \
	alphaTincreaseFactor 3 \
	nAlphaAdjustMax      3 \
	wolfeEnergy          0.0001 \
	wolfeGradient        0.9 \
	fdTest               no
kpoint   0.000000000000   0.000000000000   0.000000000000  1.00000000000000
kpoint-folding 3 3 1 
latt-move-scale 0 0 0
latt-scale 1 1 1 
lattice  \
	  23.436261999999999  -11.733459000000000    0.000000000000000  \
	   0.017994000000000   19.941849000000001    0.000000000000000  \
	   0.000000000000000    0.000000000000000   43.256312999999999 
lattice-minimize  \
	dirUpdateScheme      L-BFGS \
	linminMethod         DirUpdateRecommended \
	nIterations          0 \
	history              15 \
	knormThreshold       0 \
	energyDiffThreshold  1e-06 \
	nEnergyDiff          2 \
	alphaTstart          1 \
	alphaTmin            1e-10 \
	updateTestStepSize   yes \
	alphaTreduceFactor   0.1 \
	alphaTincreaseFactor 3 \
	nAlphaAdjustMax      3 \
	wolfeEnergy          0.0001 \
	wolfeGradient        0.9 \
	fdTest               no
lcao-params 30 1e-06 0.001
pcm-variant CANDLE
spintype z-spin
subspace-rotation-factor 1 yes
symmetries none
symmetry-threshold 0.0001
target-mu -0.1272 no

van-der-waals D3


Applied RMS atom displacement 0 bohrs to make symmetries exact.

---------- Initializing the Grid ----------
R = 
[      23.4363     -11.7335            0  ]
[     0.017994      19.9418            0  ]
[            0            0      43.2563  ]
unit cell volume = 20225.5
G =
[   0.267976   0.157673         -0  ]
[ -0.000241801   0.314933          0  ]
[          0         -0   0.145255  ]
Minimum fftbox size, Smin = [  96  96  176  ]
Chosen fftbox size, S = [  96  96  180  ]

---------- Exchange Correlation functional ----------
Initalized PBE GGA exchange.
Initalized PBE GGA correlation.

---------- Setting up pseudopotentials ----------
Width of ionic core gaussian charges (only for fluid interactions / plotting) set to 0.397384

Reading pseudopotential file '/projects/musgravc/apps/jdftx-1.6.0/build/pseudopotentials/GBRV_v1.5/c_pbe_v1.2.uspp':
  Title: C.  Created by USPP 7.3.6 on 3-2-2014
  Reference state energy: -5.406344.  4 valence electrons in orbitals:
    |200>  occupation: 2  eigenvalue: -0.504890
    |210>  occupation: 2  eigenvalue: -0.194356
  lMax: 1  lLocal: 2  QijEcut: 5
  4 projectors sampled on a log grid with 503 points:
    l: 0  eig: -0.504890  rCut: 1.3
    l: 0  eig: 0.000000  rCut: 1.3
    l: 1  eig: -0.194357  rCut: 1.3
    l: 1  eig: 0.000000  rCut: 1.3
  Partial core density with radius 1.1
  Transforming core density to a uniform radial grid of dG=0.02 with 1464 points.
  Transforming local potential to a uniform radial grid of dG=0.02 with 1464 points.
  Transforming nonlocal projectors to a uniform radial grid of dG=0.02 with 432 points.
  Transforming density augmentations to a uniform radial grid of dG=0.02 with 1464 points.
  Transforming atomic orbitals to a uniform radial grid of dG=0.02 with 432 points.
  Core radius for overlap checks: 1.30 bohrs.

Reading pseudopotential file '/projects/musgravc/apps/jdftx-1.6.0/build/pseudopotentials/GBRV_v1.5/n_pbe_v1.2.uspp':
  Title: N.  Created by USPP 7.3.6 on 3-2-2014
  Reference state energy: -9.763716.  5 valence electrons in orbitals:
    |200>  occupation: 2  eigenvalue: -0.681964
    |210>  occupation: 3  eigenvalue: -0.260726
  lMax: 1  lLocal: 2  QijEcut: 6
  4 projectors sampled on a log grid with 491 points:
    l: 0  eig: -0.681964  rCut: 1.15
    l: 0  eig: 0.000000  rCut: 1.15
    l: 1  eig: -0.260729  rCut: 1.2
    l: 1  eig: 0.500000  rCut: 1.2
  Partial core density with radius 0.8
  Transforming core density to a uniform radial grid of dG=0.02 with 1464 points.
  Transforming local potential to a uniform radial grid of dG=0.02 with 1464 points.
  Transforming nonlocal projectors to a uniform radial grid of dG=0.02 with 432 points.
  Transforming density augmentations to a uniform radial grid of dG=0.02 with 1464 points.
  Transforming atomic orbitals to a uniform radial grid of dG=0.02 with 432 points.
  Core radius for overlap checks: 1.20 bohrs.

Reading pseudopotential file '/projects/musgravc/apps/jdftx-1.6.0/build/pseudopotentials/GBRV_v1.5/ti_pbe_v1.4.uspp':
  Title: Ti.  Created by USPP 7.3.6 on 31-3-15
  Reference state energy: -59.020943.  12 valence electrons in orbitals:
    |300>  occupation: 2  eigenvalue: -2.777623
    |310>  occupation: 6  eigenvalue: -1.894596
    |400>  occupation: 2  eigenvalue: -0.438610
    |320>  occupation: 1  eigenvalue: -0.583119
  lMax: 2  lLocal: 3  QijEcut: 6
  6 projectors sampled on a log grid with 597 points:
    l: 0  eig: -2.777624  rCut: 1.8
    l: 0  eig: -0.438611  rCut: 1.8
    l: 1  eig: -1.894596  rCut: 1.8
    l: 1  eig: 0.500000  rCut: 1.8
    l: 2  eig: -0.583118  rCut: 1.8
    l: 2  eig: 0.150000  rCut: 1.8
  Partial core density with radius 0.8
  Transforming core density to a uniform radial grid of dG=0.02 with 1464 points.
  Transforming local potential to a uniform radial grid of dG=0.02 with 1464 points.
  Transforming nonlocal projectors to a uniform radial grid of dG=0.02 with 432 points.
  Transforming density augmentations to a uniform radial grid of dG=0.02 with 1464 points.
  Transforming atomic orbitals to a uniform radial grid of dG=0.02 with 432 points.
  Core radius for overlap checks: 1.80 bohrs.

Reading pseudopotential file '/projects/musgravc/apps/jdftx-1.6.0/build/pseudopotentials/GBRV_v1.5/o_pbe_v1.2.uspp':
  Title: O.  Created by USPP 7.3.6 on 3-2-2014
  Reference state energy: -15.894388.  6 valence electrons in orbitals:
    |200>  occupation: 2  eigenvalue: -0.878823
    |210>  occupation: 4  eigenvalue: -0.332131
  lMax: 2  lLocal: 2  QijEcut: 6
  5 projectors sampled on a log grid with 511 points:
    l: 0  eig: -0.878823  rCut: 1.25
    l: 0  eig: 0.000000  rCut: 1.25
    l: 1  eig: -0.332132  rCut: 1.25
    l: 1  eig: 0.000000  rCut: 1.25
    l: 2  eig: 1.000000  rCut: 1.25
  Partial core density with radius 0.7
  Transforming core density to a uniform radial grid of dG=0.02 with 1464 points.
  Transforming local potential to a uniform radial grid of dG=0.02 with 1464 points.
  Transforming nonlocal projectors to a uniform radial grid of dG=0.02 with 432 points.
  Transforming density augmentations to a uniform radial grid of dG=0.02 with 1464 points.
  Transforming atomic orbitals to a uniform radial grid of dG=0.02 with 432 points.
  Core radius for overlap checks: 1.25 bohrs.

Reading pseudopotential file '/projects/musgravc/apps/jdftx-1.6.0/build/pseudopotentials/GBRV_v1.5/h_pbe_v1.4.uspp':
  Title: H.  Created by USPP 7.3.6 on 2-4-15
  Reference state energy: -0.458849.  1 valence electrons in orbitals:
    |100>  occupation: 1  eigenvalue: -0.238595
  lMax: 0  lLocal: 1  QijEcut: 6
  2 projectors sampled on a log grid with 395 points:
    l: 0  eig: -0.238595  rCut: 1.2
    l: 0  eig: 1.000000  rCut: 1.2
  Transforming local potential to a uniform radial grid of dG=0.02 with 1464 points.
  Transforming nonlocal projectors to a uniform radial grid of dG=0.02 with 432 points.
  Transforming density augmentations to a uniform radial grid of dG=0.02 with 1464 points.
  Transforming atomic orbitals to a uniform radial grid of dG=0.02 with 432 points.
  Core radius for overlap checks: 1.20 bohrs.

Initialized 5 species with 54 total atoms.

Folded 1 k-points by 3x3x1 to 9 k-points.

---------- Setting up k-points, bands, fillings ----------
No reducable k-points. 
Computing the number of bands and number of electrons
Reading initial fillings from file jdft.fillings.
nElectrons: 226.580667   nBands: 136   nStates: 18

----- Setting up reduced wavefunction bases (one per k-point) -----
average nbasis = 86412.556 , ideal nbasis = 86404.907

----- Initializing Supercell corresponding to k-point mesh -----
Lattice vector linear combinations in supercell:
[   3   0   0  ]
[   0   3   0  ]
[   0   0   1  ]
Supercell lattice vectors:
[  70.3088  -35.2004  0  ]
[  0.053982  59.8255  0  ]
[  0  0  43.2563  ]

Initializing DFT-D3 calculator:
	Parameters set for gga-PBE functional
	s6:  1.000  s_r6:  1.217
	s8:  0.722  s_r8:  1.000
	Per-atom parameters loaded for:
	 C:  sqrtQ[a0]:  3.105  Rcov[a0]:  1.417  CN: [ 0.00 0.99 2.00 3.00 3.98 ]
	 N:  sqrtQ[a0]:  2.712  Rcov[a0]:  1.342  CN: [ 0.00 0.99 2.01 2.99 ]
	Ti:  sqrtQ[a0]:  6.288  Rcov[a0]:  2.305  CN: [ 0.00 1.83 3.87 ]
	 O:  sqrtQ[a0]:  2.594  Rcov[a0]:  1.191  CN: [ 0.00 0.99 1.99 ]
	 H:  sqrtQ[a0]:  2.007  Rcov[a0]:  0.605  CN: [ 0.91 0.00 ]

Initializing DFT-D2 calculator for fluid / solvation:
	 C:  C6:   30.35 Eh-a0^6  R0: 2.744 a0
	 N:  C6:   21.33 Eh-a0^6  R0: 2.640 a0
	Ti:  C6:  187.33 Eh-a0^6  R0: 2.952 a0
	 O:  C6:   12.14 Eh-a0^6  R0: 2.536 a0
	 H:  C6:    2.43 Eh-a0^6  R0: 1.892 a0

---------- Setting up ewald sum ----------
Optimum gaussian width for ewald sums = 5.590847 bohr.
Real space sum over 567 unit cells with max indices [  4  4  3  ]
Reciprocal space sum over 7803 terms with max indices [  8  8  13  ]

Computing DFT-D3 correction:
# coordination-number C 3.304 3.324 3.335 3.333 3.315 3.290 3.326 3.605 3.329 3.314 3.303 3.324 3.305 3.302 3.324 3.580 3.264 3.302 3.321 3.336 3.330 3.305 3.306 3.329 3.336 3.322 3.303 3.267 3.601 3.324 3.302 3.305 3.323 3.303 3.314 3.329 3.579 3.320 3.290 3.314 3.333 3.336 3.324 3.303 2.006
# coordination-number N 3.178 3.176 3.180 3.177
# coordination-number Ti 6.524
# coordination-number O 1.029 1.986
# coordination-number H 0.992 0.995
# diagonal-C6 C 24.25 24.04 23.91 23.94 24.14 24.38 24.01 20.22 23.99 24.14 24.25 24.04 24.23 24.26 24.04 20.53 24.60 24.26 24.07 23.91 23.97 24.24 24.23 23.99 23.91 24.07 24.26 24.57 20.26 24.04 24.26 24.23 24.05 24.25 24.14 23.98 20.53 24.08 24.38 24.15 23.94 23.91 24.03 24.25 29.48
# diagonal-C6 N 15.60 15.60 15.60 15.60
# diagonal-C6 Ti 321.59
# diagonal-C6 O 12.79 10.41
# diagonal-C6 H 3.09 3.09
EvdW_6 =   -0.043231
EvdW_8 =   -0.033634

---------- Allocating electronic variables ----------
Initializing wave functions:  reading from 'jdft.wfns'
----- createFluidSolver() ----- (Fluid-side solver setup)
   Initializing fluid molecule 'H2O'
     Initializing site 'O'
       Electron density: proportional to exp(-r/0.36935)*erfc((r-0.51523)/0.36823) with norm 6.826
       Charge density: gaussian nuclear width 0.478731 with net site charge 0.826
       Polarizability: cuspless exponential with width 0.32 and norm 3.73
       Hard sphere radius: 2.57003 bohrs
       Positions in reference frame:
         [ +0.000000 +0.000000 +0.000000 ]
     Initializing site 'H'
       Electron density: proportional to exp(-r/0.34641)*erfc((r-0)/0.390882) with norm 0.587
       Charge density: gaussian nuclear width 0.377945 with net site charge -0.413
       Polarizability: cuspless exponential with width 0.39 and norm 3.3
       Positions in reference frame:
         [ +0.000000 -1.441945 +1.122523 ]
         [ +0.000000 +1.441945 +1.122523 ]
     Net charge: 0   dipole magnitude: 0.927204
     Initializing spherical shell mfKernel with radius 2.61727 Bohr
     deltaS corrections:
       site 'O': -7.54299
       site 'H': -6.83917
   Initializing fluid molecule 'Na+'
     Initializing site 'Na'
       Electron density: proportional to exp(-r/0.19682)*erfc((r-0.71491)/0.41314) with norm 8.1383
       Charge density: gaussian nuclear width 0.365347 with net site charge -1
       Hard sphere radius: 1.86327 bohrs
       Positions in reference frame:
         [ +0.000000 +0.000000 +0.000000 ]
     Net charge: -1   dipole magnitude: 0
     Initializing gaussian mfKernel with width: 1.55004 Bohr
     deltaS corrections:
       site 'Na': -22.3555
   Initializing fluid molecule 'F-'
     Initializing site 'F'
       Electron density: proportional to exp(-r/0.38886)*erfc((r-0)/0.438782) with norm 8
       Charge density: gaussian nuclear width 0.374796 with net site charge 1
       Hard sphere radius: 2.39995 bohrs
       Positions in reference frame:
         [ +0.000000 +0.000000 +0.000000 ]
     Net charge: 1   dipole magnitude: 0
     Initializing gaussian mfKernel with width: 1.59012 Bohr
     deltaS corrections:
       site 'F': -9.04335

Correction to mu due to finite nuclear width = -0.0110869
   Cavity determined by nc: 0.00142 and sigma: 0.707107
   Nonlocal vdW cavity from gaussian model electron density with norm = 8 and sigma = 0.993594 bohr
   Charge asymmetry in cavity with sensitivity pCavity = 36.5 e-bohr/Eh
   Electrostatic cavity expanded by eta = 1.46 bohrs
   Weighted density cavitation model constrained by Nbulk: 0.0049383 bohr^-3, Pvap: 3.14029 kPa, Rvdw: 2.61727 bohr and sigmaBulk: 4.62e-05 Eh/bohr^2 at T: 298 K.
   Weighted density dispersion model using vdW pair potentials with single solvent site with sqrtC6eff: 0.77 SI.
Reading fluid state from 'jdft.fluidState'


---- Citations for features of the code used in this run ----

   Software package:
      R. Sundararaman, K. Letchworth-Weaver, K.A. Schwarz, D. Gunceler, Y. Ozhabes and T.A. Arias, 'JDFTx: software for joint density-functional theory', SoftwareX 6, 278 (2017)

   gga-PBE exchange-correlation functional:
      J.P. Perdew, K. Burke and M. Ernzerhof, Phys. Rev. Lett. 77, 3865 (1996)

   Pseudopotentials:
      KF Garrity, JW Bennett, KM Rabe and D Vanderbilt, Comput. Mater. Sci. 81, 446 (2014)

   DFT-D3 dispersion correction:
      S. Grimme, J. Antony, S. Ehrlich and H. Krieg, J. Chem. Phys. 132, 154104 (2010)

   DFT-D2 dispersion correction:
      S. Grimme, J. Comput. Chem. 27, 1787 (2006)

   Charge-asymmetric nonlocally-determined local-electric (CANDLE) solvation model:
      R. Sundararaman and W.A. Goddard III, J. Chem. Phys. 142, 064107 (2015)

   Total energy minimization with Auxiliary Hamiltonian:
      C. Freysoldt, S. Boeck, and J. Neugebauer, Phys. Rev. B 79, 241103(R) (2009)

   Grand-canonical (fixed-potential) DFT:
      R. Sundararaman, W. A. Goddard III and T. A. Arias, J. Chem. Phys. 146, 114104 (2017)

   Linear-tetrahedron sampling for density of states:
      G. Lehmann and M. Taut, Phys. status solidi (b) 54, 469 (1972)

This list may not be complete. Please suggest additional citations or
report any other bugs at https://github.com/shankar1729/jdftx/issues

Initialization completed successfully at t[s]:     24.41


Computing DFT-D3 correction:
# coordination-number C 3.304 3.324 3.335 3.333 3.315 3.290 3.326 3.605 3.329 3.314 3.303 3.324 3.305 3.302 3.324 3.580 3.264 3.302 3.321 3.336 3.330 3.305 3.306 3.329 3.336 3.322 3.303 3.267 3.601 3.324 3.302 3.305 3.323 3.303 3.314 3.329 3.579 3.320 3.290 3.314 3.333 3.336 3.324 3.303 2.006
# coordination-number N 3.178 3.176 3.180 3.177
# coordination-number Ti 6.524
# coordination-number O 1.029 1.986
# coordination-number H 0.992 0.995
# diagonal-C6 C 24.25 24.04 23.91 23.94 24.14 24.38 24.01 20.22 23.99 24.14 24.25 24.04 24.23 24.26 24.04 20.53 24.60 24.26 24.07 23.91 23.97 24.24 24.23 23.99 23.91 24.07 24.26 24.57 20.26 24.04 24.26 24.23 24.05 24.25 24.14 23.98 20.53 24.08 24.38 24.15 23.94 23.91 24.03 24.25 29.48
# diagonal-C6 N 15.60 15.60 15.60 15.60
# diagonal-C6 Ti 321.59
# diagonal-C6 O 12.79 10.41
# diagonal-C6 H 3.09 3.09
EvdW_6 =   -0.043231
EvdW_8 =   -0.033634
Shifting auxilliary hamiltonian by 0.000021 to set nElectrons=226.580667

-------- Electronic minimization -----------
	Linear fluid (dielectric constant: 78.4, screening length: 8.12261 Bohr) occupying 0.713845 of unit cell:	Completed after 2 iterations at t[s]:     55.34
	FillingsUpdate:  mu: -0.127200000  nElectrons: 226.580667  magneticMoment: [ Abs: 2.01573  Tot: -1.86753 ]
ElecMinimize: Iter:   0  G: -359.923429091651428  |grad|_K:  1.144e-07  alpha:  1.000e+00
	Linear fluid (dielectric constant: 78.4, screening length: 8.12261 Bohr) occupying 0.713805 of unit cell:	Completed after 8 iterations at t[s]:    171.40
	Linear fluid (dielectric constant: 78.4, screening length: 8.12261 Bohr) occupying 0.713840 of unit cell:	Completed after 8 iterations at t[s]:    215.62
	FillingsUpdate:  mu: -0.127200000  nElectrons: 226.579775  magneticMoment: [ Abs: 2.01620  Tot: -1.86842 ]
	SubspaceRotationAdjust: set factor to 0.567
ElecMinimize: Iter:   1  G: -359.923429457498401  |grad|_K:  2.660e-08  alpha:  1.239e-01  linmin:  9.480e-04  t[s]:    270.34
	Linear fluid (dielectric constant: 78.4, screening length: 8.12261 Bohr) occupying 0.713843 of unit cell:	Completed after 0 iterations at t[s]:    316.73
ElecMinimize: 	Predicted alpha/alphaT>3.000000, increasing alphaT to 3.716462e-01.
	Linear fluid (dielectric constant: 78.4, screening length: 8.12261 Bohr) occupying 0.713849 of unit cell:	Completed after 2 iterations at t[s]:    358.16
	Linear fluid (dielectric constant: 78.4, screening length: 8.12261 Bohr) occupying 0.713845 of unit cell:	Completed after 0 iterations at t[s]:    396.91
	FillingsUpdate:  mu: -0.127200000  nElectrons: 226.580802  magneticMoment: [ Abs: 2.01572  Tot: -1.86746 ]
	SubspaceRotationAdjust: set factor to 0.325
ElecMinimize: Iter:   2  G: -359.923429482173503  |grad|_K:  1.067e-08  alpha:  2.239e-01  linmin:  1.084e-03  t[s]:    452.74
	Linear fluid (dielectric constant: 78.4, screening length: 8.12261 Bohr) occupying 0.713846 of unit cell:	Completed after 0 iterations at t[s]:    500.19
ElecMinimize: 	Predicted alpha/alphaT>3.000000, increasing alphaT to 6.716436e-01.
	Linear fluid (dielectric constant: 78.4, screening length: 8.12261 Bohr) occupying 0.713846 of unit cell:	Completed after 1 iterations at t[s]:    542.83
	Linear fluid (dielectric constant: 78.4, screening length: 8.12261 Bohr) occupying 0.713846 of unit cell:	Completed after 0 iterations at t[s]:    584.11
ElecMinimize: 	Step increased G by 1.101154e-08, reducing alpha to 2.167047e-02.
	Linear fluid (dielectric constant: 78.4, screening length: 8.12261 Bohr) occupying 0.713845 of unit cell:	Completed after 0 iterations at t[s]:    675.77
ElecMinimize: 	Step increased G by 1.172958e-08, reducing alpha to 2.167047e-03.
	Linear fluid (dielectric constant: 78.4, screening length: 8.12261 Bohr) occupying 0.713845 of unit cell:	Completed after 0 iterations at t[s]:    766.72
ElecMinimize: 	Step increased G by 1.186879e-08, reducing alpha to 2.167047e-04.
ElecMinimize: 	Step failed to reduce G after 3 attempts. Quitting step.
ElecMinimize: 	Undoing step.
	Linear fluid (dielectric constant: 78.4, screening length: 8.12261 Bohr) occupying 0.713845 of unit cell:	Completed after 0 iterations at t[s]:    857.10
ElecMinimize: 	Step failed: resetting search direction.
	FillingsUpdate:  mu: -0.127200000  nElectrons: 226.580802  magneticMoment: [ Abs: 2.01572  Tot: -1.86745 ]
	SubspaceRotationAdjust: set factor to 0.19
ElecMinimize: Iter:   3  G: -359.923429470304654  |grad|_K:  4.733e-09  alpha:  2.167e-04
	Linear fluid (dielectric constant: 78.4, screening length: 8.12261 Bohr) occupying 0.713846 of unit cell:	Completed after 0 iterations at t[s]:    961.87
ElecMinimize: 	Predicted alpha/alphaT>3.000000, increasing alphaT to 6.716436e-01.
	Linear fluid (dielectric constant: 78.4, screening length: 8.12261 Bohr) occupying 0.713846 of unit cell:	Completed after 0 iterations at t[s]:   1002.47
	Linear fluid (dielectric constant: 78.4, screening length: 8.12261 Bohr) occupying 0.713848 of unit cell:	Completed after 0 iterations at t[s]:   1042.92
ElecMinimize: 	Step increased G by 5.987488e-09, reducing alpha to 1.796639e-01.
	Linear fluid (dielectric constant: 78.4, screening length: 8.12261 Bohr) occupying 0.713846 of unit cell:	Completed after 0 iterations at t[s]:   1133.89
ElecMinimize: 	Step increased G by 6.715595e-09, reducing alpha to 1.796639e-02.
	Linear fluid (dielectric constant: 78.4, screening length: 8.12261 Bohr) occupying 0.713845 of unit cell:	Completed after 0 iterations at t[s]:   1225.36
ElecMinimize: 	Step increased G by 7.558299e-09, reducing alpha to 1.796639e-03.
ElecMinimize: 	Step failed to reduce G after 3 attempts. Quitting step.
ElecMinimize: 	Undoing step.
	Linear fluid (dielectric constant: 78.4, screening length: 8.12261 Bohr) occupying 0.713845 of unit cell:	Completed after 0 iterations at t[s]:   1316.41
ElecMinimize: 	Step failed along negative gradient direction.
ElecMinimize: Probably at roundoff error limit. (Stopping)
Setting wave functions to eigenvectors of Hamiltonian
Converging empty states (this may take a while): |deigs|: 1.768e-08

Computing DFT-D3 correction:
# coordination-number C 3.304 3.324 3.335 3.333 3.315 3.290 3.326 3.605 3.329 3.314 3.303 3.324 3.305 3.302 3.324 3.580 3.264 3.302 3.321 3.336 3.330 3.305 3.306 3.329 3.336 3.322 3.303 3.267 3.601 3.324 3.302 3.305 3.323 3.303 3.314 3.329 3.579 3.320 3.290 3.314 3.333 3.336 3.324 3.303 2.006
# coordination-number N 3.178 3.176 3.180 3.177
# coordination-number Ti 6.524
# coordination-number O 1.029 1.986
# coordination-number H 0.992 0.995
# diagonal-C6 C 24.25 24.04 23.91 23.94 24.14 24.38 24.01 20.22 23.99 24.14 24.25 24.04 24.23 24.26 24.04 20.53 24.60 24.26 24.07 23.91 23.97 24.24 24.23 23.99 23.91 24.07 24.26 24.57 20.26 24.04 24.26 24.23 24.05 24.25 24.14 23.98 20.53 24.08 24.38 24.15 23.94 23.91 24.03 24.25 29.48
# diagonal-C6 N 15.60 15.60 15.60 15.60
# diagonal-C6 Ti 321.59
# diagonal-C6 O 12.79 10.41
# diagonal-C6 H 3.09 3.09
EvdW_6 =   -0.043231
EvdW_8 =   -0.033634

# Ionic positions in cartesian coordinates:
ion C  -0.080713594273591   0.080622969633305  43.299784760966617 1
ion C  20.962825057226400   4.045601320725081  43.222466021625273 1
ion C  18.621188195891257   8.052618804183849  43.063150770868234 1
ion C  -7.118279267746162  12.056857888735561  43.082997717578365 1
ion C  -9.444461393041971  16.063685428664353  43.248482738350027 1
ion C   4.608886176910676   0.188510145485877   0.103271042605588 1
ion C   2.192545066783459   4.184812958575778   0.212667346230765 1
ion C  -0.206615546844898   8.029055552497333   0.090603695886282 1
ion C  -2.507370252975252  12.041393140253636  43.180751718599154 1
ion C  -4.796325680182500  16.069297862004412  43.222205111200871 1
ion C   9.296656462209029   0.094580998406461  43.299491315578990 1
ion C   7.014265066754746   4.197609965090984   0.230070480659765 1
ion C  -0.108078758331850  15.987963152345610   0.079684649056287 1
ion C   2.269352889056563  19.942564633434138  43.324929280304850 1
ion C  11.686346785176381   4.041549779573500  43.257324208781029 1
ion C   9.414903170089525   8.039649559785754   0.170418216851763 1
ion C   4.596713969354541  15.846324423947120   0.288117798402760 1
ion C   6.918778569414210  19.943150920734688  43.316996158444439 1
ion C  16.324894361746260   4.024294701732576  43.161364963458055 1
ion C  14.020861309501310   8.049642524440769  43.103044782544913 1
ion C  11.709720267442478  12.051534244327764  43.267387093101405 1
ion C   9.301533302738735  15.988493543410705   0.129290999590077 1
ion C  -0.099889978110948   2.757820364018539   0.049414865087950 1
ion C  -2.504556842069767   6.702110288569465  43.170826293260482 1
ion C  -4.816931854915193  10.706188672153800  43.066496342136432 1
ion C  -7.119423348647358  14.729407660633878  43.170659955374703 1
ion C  -9.448336792422927  18.749478646461252  43.308068740252537 1
ion C   4.605182573075097   2.909076546143199   0.229992282740991 1
ion C  -0.208667601152960  10.718636466819815   0.107540335271740 1
ion C  -2.479901265277975  14.715267957410855  43.240139021521713 1
ion C  -4.798364958812218  18.755394054736275  43.302333657911426 1
ion C   9.311931282897156   2.772174279773311   0.066847944515909 1
ion C   2.188517046991940  14.565428725215444   0.264224129833866 1
ion C  -0.093871760539296  18.665319225639887  43.312712041195745 1
ion C  14.001790347829278   2.686071637460163  43.236047142311833 1
ion C  11.711823901022759   6.715560896668539  43.227997519616068 1
ion C   9.414244166379545  10.725799975943138   0.205580734611167 1
ion C   7.005946265661002  14.561809813874413   0.312133585897827 1
ion C   4.594873031435041  18.563631885268546   0.140088059528669 1
ion C  18.649386004684445   2.686853775829974  43.215206167757415 1
ion C  16.321752918348544   6.697803515260726  43.071548497851268 1
ion C  14.019080658429163  10.720263677352913  43.114934844371007 1
ion C  11.678024718177214  14.724081641187603  43.305496617813347 1
ion C   9.281628854549798  18.665787040720168  43.321456690135044 1
ion C   4.570768358983726   9.071015539887494   5.472419091180233 1
ion N   2.052199431092752  11.981144309081786   0.430783847372423 1
ion N   7.146384455093861  11.978003416819712   0.513548559319782 1
ion N   2.057496102505937   6.764956559352069   0.377814878275565 1
ion N   7.146025097115255   6.780897363797830   0.437731165661306 1
ion Ti   4.565711176103585   9.358847907373988   1.719167397264017 1
ion O   4.577569864782676   8.914592813138116   7.713814823256667 1
ion O   7.005660475021124   2.632971317841478   6.404787113561904 1
ion H   8.637729348990868   3.518231926856906   6.473274583229610 1
ion H   6.306666165878548   3.099077580719777   4.745983201196660 1

# Forces in Cartesian coordinates:
force C   0.000398405971648  -0.000074539995082   0.000195526152734 1
force C   0.000177874834508   0.000314848716002   0.000060798630737 1
force C   0.000084945705732   0.000400835966693  -0.000041745573228 1
force C   0.000107646616786   0.000221771131227   0.000007744113001 1
force C   0.000106334284565   0.000216358384154   0.000084028417107 1
force C  -0.000033332638079  -0.000326941721829   0.000032805877032 1
force C   0.000097895231152   0.000129657843247  -0.000080642432004 1
force C   0.000044731090214   0.000106175124335   0.000254861483780 1
force C   0.000165820425753   0.000034267135933   0.000385813480124 1
force C  -0.000138137889408  -0.000049077536649  -0.000060780878418 1
force C  -0.000239366069665  -0.000316565967187   0.000045384722564 1
force C  -0.000197533058615   0.000058238287010   0.000036348581869 1
force C   0.000001643090125  -0.000461400870026   0.000159300152948 1
force C  -0.000211571361639  -0.000323514215208  -0.000410228647666 1
force C  -0.000529775586387   0.000185910468441   0.000018039652825 1
force C  -0.000230908232267   0.000096352219348   0.000080506420802 1
force C   0.000054050033996  -0.000592515036164  -0.000237348230246 1
force C   0.000006587599251  -0.000028035115671   0.000121264207100 1
force C  -0.000090484912219   0.000327975087297   0.000106275367462 1
force C  -0.000218238729962   0.000373979515748   0.000000260399213 1
force C  -0.000207487553824  -0.000097307494041  -0.000364604890344 1
force C  -0.000161220144936  -0.000151803404495  -0.000144455444289 1
force C  -0.000197228180628   0.000243777808733   0.000061122326899 1
force C   0.000270090908859  -0.000288264650042   0.000075341394009 1
force C   0.000244870043145  -0.000472004896404  -0.000072150935596 1
force C  -0.000072934253624   0.000023723004186   0.000330329937387 1
force C  -0.000206925435793   0.000197614330569   0.000134702728488 1
force C   0.000118515215234   0.000105659618535  -0.000079944753869 1
force C   0.000028120131882  -0.000088908135170   0.000313651318546 1
force C   0.000178312427521   0.000036087571015   0.000126196626911 1
force C   0.000160944190719   0.000090456122836  -0.000310870382203 1
force C   0.000314423422901   0.000048640833215   0.000215086686060 1
force C   0.000090620445391  -0.000097660576138  -0.000170990928164 1
force C   0.000414633851457   0.000064980005839   0.000079351055550 1
force C   0.000211838025115  -0.000125888864050  -0.000215379260204 1
force C   0.000135823512698  -0.000154353841838  -0.000060381197488 1
force C  -0.000022793501158   0.000018177606028  -0.000111694264325 1
force C  -0.000178065875593   0.000082764158805  -0.000106784724650 1
force C   0.000054329485421  -0.000067395702298  -0.000286545795847 1
force C  -0.000219736539151   0.000011630148277   0.000186329354646 1
force C   0.000138287032995  -0.000624586843242   0.000123306552280 1
force C  -0.000098167885508  -0.000269746766526  -0.000008372860789 1
force C  -0.000372835880762   0.000033235257512  -0.000252693495170 1
force C  -0.000217761863828   0.000157330036906   0.000243624030466 1
force C   0.000097635789905   0.000140615259076  -0.000547130622245 1
force N  -0.000013031088084   0.000200045636453  -0.000180085053474 1
force N  -0.000117089710074  -0.000068991593343  -0.000075124060292 1
force N   0.000313894512842   0.000055157493431   0.000148797908298 1
force N  -0.000393999649165   0.000152785825228   0.000201224862237 1
force Ti  -0.000143926273804   0.000497709027442  -0.000729531117054 1
force O  -0.000013358983096   0.000026076128367   0.001094366035146 1
force O  -0.000446651431866   0.000056478272140  -0.001143693317710 1
force H  -0.000582601824082  -0.000179437812124   0.000059858761638 1
force H   0.000751173422508  -0.000119010958043   0.001049114649139 1

# Energy components:
   A_diel =       -0.0410769824091789
   Eewald =     1645.5231208521793178
       EH =     1964.1794143116030682
     Eloc =    -4142.9040190020386945
      Enl =       52.5892930389916415
     EvdW =       -0.0768648241628220
      Exc =     -109.6868933845729686
 Exc_core =        3.3095184744116097
       KE =      198.3697771141581541
  MuShift =       -0.0064393207857130
-------------------------------------
     Etot =     -388.7441697226255428
       TS =        0.0003383223474418
-------------------------------------
        F =     -388.7445080449729744
      muN =      -28.8210785822438069
-------------------------------------
        G =     -359.9234294627291888


Dumping 'jdft.fillings' ... done
Dumping 'jdft.wfns' ... done
Dumping 'jdft.fluidState' ... done
Dumping 'jdft.ionpos' ... done
Dumping 'jdft.lattice' ... done
Dumping 'jdft.eigenvals' ... done
Dumping 'jdft.eigStats' ... 
	eMin: -2.251601 at state 9 ( [ +0.000000 +0.000000 +0.000000 ] spin -1 )
	HOMO: -0.133849 at state 17 ( [ -0.333333 -0.333333 +0.000000 ] spin -1 )
	mu  : -0.127200
	LUMO: -0.126962 at state 0 ( [ +0.000000 +0.000000 +0.000000 ] spin 1 )
	eMax: +0.022380 at state 0 ( [ +0.000000 +0.000000 +0.000000 ] spin 1 )
	HOMO-LUMO gap: +0.006887
	Optical gap  : +0.016697 at state 11 ( [ +0.000000 -0.333333 +0.000000 ] spin -1 )
Dumping 'jdft.Ecomponents' ... done
IonicMinimize: Iter:   0  G: -359.923429462729189  |grad|_K:  2.745e-04  t[s]:   1507.97

#--- Lowdin population analysis ---
# oxidation-state C +0.035 +0.038 +0.035 +0.043 +0.034 +0.033 +0.162 +0.118 +0.027 +0.034 +0.033 +0.142 +0.020 +0.034 +0.035 +0.119 -0.012 +0.035 +0.026 +0.034 +0.027 +0.020 +0.020 +0.028 +0.035 +0.027 +0.034 -0.032 +0.120 +0.038 +0.033 +0.014 +0.164 +0.035 +0.034 +0.026 +0.121 +0.163 +0.038 +0.034 +0.043 +0.035 +0.038 +0.035 -0.106
# magnetic-moments C -0.002 -0.009 +0.000 +0.000 +0.002 +0.001 -0.019 -0.010 +0.002 +0.002 -0.002 -0.019 +0.003 -0.003 -0.008 -0.009 +0.005 -0.003 -0.003 +0.000 +0.002 +0.003 +0.002 +0.001 -0.002 -0.006 -0.004 +0.004 -0.012 -0.010 -0.004 +0.003 -0.018 -0.002 +0.001 +0.001 -0.011 -0.018 -0.000 +0.001 -0.001 -0.001 -0.009 -0.003 -0.520
# oxidation-state N -0.343 -0.342 -0.336 -0.339
# magnetic-moments N -0.001 +0.003 +0.001 +0.005
# oxidation-state Ti +1.351
# magnetic-moments Ti -0.830
# oxidation-state O -0.276 -0.772
# magnetic-moments O -0.273 -0.002
# oxidation-state H +0.454 +0.410
# magnetic-moments H -0.000 -0.002


Computing DFT-D3 correction:
# coordination-number C 3.303 3.324 3.335 3.333 3.315 3.290 3.326 3.605 3.329 3.314 3.303 3.324 3.305 3.302 3.324 3.580 3.264 3.302 3.321 3.336 3.330 3.305 3.306 3.329 3.335 3.321 3.302 3.267 3.602 3.324 3.302 3.305 3.323 3.303 3.314 3.329 3.579 3.321 3.290 3.314 3.333 3.336 3.324 3.303 2.006
# coordination-number N 3.178 3.176 3.180 3.177
# coordination-number Ti 6.525
# coordination-number O 1.029 1.986
# coordination-number H 0.992 0.996
# diagonal-C6 C 24.25 24.04 23.91 23.94 24.14 24.38 24.01 20.22 23.98 24.14 24.25 24.04 24.23 24.26 24.04 20.52 24.60 24.27 24.07 23.91 23.97 24.24 24.23 23.99 23.91 24.07 24.26 24.57 20.26 24.04 24.26 24.23 24.05 24.25 24.14 23.98 20.53 24.08 24.38 24.14 23.94 23.91 24.04 24.25 29.48
# diagonal-C6 N 15.60 15.60 15.60 15.60
# diagonal-C6 Ti 321.59
# diagonal-C6 O 12.79 10.41
# diagonal-C6 H 3.09 3.09
EvdW_6 =   -0.043231
EvdW_8 =   -0.033634
Shifting auxilliary hamiltonian by 0.000002 to set nElectrons=226.580806

-------- Electronic minimization -----------
	Linear fluid (dielectric constant: 78.4, screening length: 8.12261 Bohr) occupying 0.713847 of unit cell:	Completed after 3 iterations at t[s]:   1567.08
	FillingsUpdate:  mu: -0.127200000  nElectrons: 226.580806  magneticMoment: [ Abs: 2.01575  Tot: -1.86745 ]
ElecMinimize: Iter:   0  G: -359.923433914416023  |grad|_K:  1.215e-07  alpha:  1.000e+00
	Linear fluid (dielectric constant: 78.4, screening length: 8.12261 Bohr) occupying 0.713854 of unit cell:	Completed after 3 iterations at t[s]:   1673.13
	Linear fluid (dielectric constant: 78.4, screening length: 8.12261 Bohr) occupying 0.713852 of unit cell:	Completed after 1 iterations at t[s]:   1711.72
	FillingsUpdate:  mu: -0.127200000  nElectrons: 226.581494  magneticMoment: [ Abs: 2.01538  Tot: -1.86677 ]
	SubspaceRotationAdjust: set factor to 0.207
ElecMinimize: Iter:   1  G: -359.923436123467354  |grad|_K:  5.256e-08  alpha:  7.053e-01  linmin:  6.560e-04  t[s]:   1763.65
	Linear fluid (dielectric constant: 78.4, screening length: 8.12261 Bohr) occupying 0.713854 of unit cell:	Completed after 2 iterations at t[s]:   1809.23
	Linear fluid (dielectric constant: 78.4, screening length: 8.12261 Bohr) occupying 0.713853 of unit cell:	Completed after 0 iterations at t[s]:   1846.43
	FillingsUpdate:  mu: -0.127200000  nElectrons: 226.581666  magneticMoment: [ Abs: 2.01529  Tot: -1.86659 ]
	SubspaceRotationAdjust: set factor to 0.231
ElecMinimize: Iter:   2  G: -359.923436479696534  |grad|_K:  3.965e-08  alpha:  6.186e-01  linmin:  2.064e-04  t[s]:   1898.46
	Linear fluid (dielectric constant: 78.4, screening length: 8.12261 Bohr) occupying 0.713856 of unit cell:	Completed after 1 iterations at t[s]:   1943.91
	Linear fluid (dielectric constant: 78.4, screening length: 8.12261 Bohr) occupying 0.713856 of unit cell:	Completed after 0 iterations at t[s]:   1980.97
	FillingsUpdate:  mu: -0.127200000  nElectrons: 226.582084  magneticMoment: [ Abs: 2.01504  Tot: -1.86616 ]
	SubspaceRotationAdjust: set factor to 0.293
ElecMinimize: Iter:   3  G: -359.923436683965065  |grad|_K:  2.433e-08  alpha:  6.205e-01  linmin: -6.407e-04  t[s]:   2032.63
	Linear fluid (dielectric constant: 78.4, screening length: 8.12261 Bohr) occupying 0.713858 of unit cell:	Completed after 0 iterations at t[s]:   2076.67
	Linear fluid (dielectric constant: 78.4, screening length: 8.12261 Bohr) occupying 0.713859 of unit cell:	Completed after 0 iterations at t[s]:   2113.17
	FillingsUpdate:  mu: -0.127200000  nElectrons: 226.582520  magneticMoment: [ Abs: 2.01475  Tot: -1.86570 ]
	SubspaceRotationAdjust: set factor to 0.391
ElecMinimize: Iter:   4  G: -359.923436820467373  |grad|_K:  1.843e-08  alpha:  1.035e+00  linmin: -1.504e-05  t[s]:   2164.46
	Linear fluid (dielectric constant: 78.4, screening length: 8.12261 Bohr) occupying 0.713864 of unit cell:	Completed after 2 iterations at t[s]:   2210.08
	Linear fluid (dielectric constant: 78.4, screening length: 8.12261 Bohr) occupying 0.713861 of unit cell:	Completed after 0 iterations at t[s]:   2247.11
ElecMinimize: 	Step increased G by 3.090520e-09, reducing alpha to 4.087131e-02.
	Linear fluid (dielectric constant: 78.4, screening length: 8.12261 Bohr) occupying 0.713860 of unit cell:	Completed after 1 iterations at t[s]:   2333.28
ElecMinimize: 	Step increased G by 2.839556e-08, reducing alpha to 4.087131e-03.
	Linear fluid (dielectric constant: 78.4, screening length: 8.12261 Bohr) occupying 0.713859 of unit cell:	Completed after 0 iterations at t[s]:   2417.90
ElecMinimize: 	Step increased G by 3.044357e-08, reducing alpha to 4.087131e-04.
ElecMinimize: 	Step failed to reduce G after 3 attempts. Quitting step.
ElecMinimize: 	Undoing step.
	Linear fluid (dielectric constant: 78.4, screening length: 8.12261 Bohr) occupying 0.713859 of unit cell:	Completed after 0 iterations at t[s]:   2503.21
ElecMinimize: 	Step failed: resetting search direction.
	FillingsUpdate:  mu: -0.127200000  nElectrons: 226.582522  magneticMoment: [ Abs: 2.01475  Tot: -1.86570 ]
	SubspaceRotationAdjust: set factor to 0.412
ElecMinimize: Iter:   5  G: -359.923436789983100  |grad|_K:  2.515e-08  alpha:  4.087e-04
	Linear fluid (dielectric constant: 78.4, screening length: 8.12261 Bohr) occupying 0.713858 of unit cell:	Completed after 1 iterations at t[s]:   2599.92
	Linear fluid (dielectric constant: 78.4, screening length: 8.12261 Bohr) occupying 0.713859 of unit cell:	Completed after 1 iterations at t[s]:   2638.36
	FillingsUpdate:  mu: -0.127200000  nElectrons: 226.582537  magneticMoment: [ Abs: 2.01471  Tot: -1.86568 ]
	SubspaceRotationAdjust: set factor to 0.407
ElecMinimize: Iter:   6  G: -359.923436838696830  |grad|_K:  2.567e-08  alpha:  3.787e-01  linmin:  3.543e-03  t[s]:   2689.63
	Linear fluid (dielectric constant: 78.4, screening length: 8.12261 Bohr) occupying 0.713858 of unit cell:	Completed after 1 iterations at t[s]:   2734.17
	Linear fluid (dielectric constant: 78.4, screening length: 8.12261 Bohr) occupying 0.713858 of unit cell:	Completed after 0 iterations at t[s]:   2770.41
	FillingsUpdate:  mu: -0.127200000  nElectrons: 226.582453  magneticMoment: [ Abs: 2.01472  Tot: -1.86575 ]
	SubspaceRotationAdjust: set factor to 0.626
ElecMinimize: Iter:   7  G: -359.923436853297346  |grad|_K:  1.631e-08  alpha:  2.531e-01  linmin: -1.068e-03  t[s]:   2822.65
ElecMinimize: Converged (|Delta G|<1.000000e-07 for 2 iters).
Setting wave functions to eigenvectors of Hamiltonian
Converging empty states (this may take a while): |deigs|: 8.230e-09

Computing DFT-D3 correction:
# coordination-number C 3.303 3.324 3.335 3.333 3.315 3.290 3.326 3.605 3.329 3.314 3.303 3.324 3.305 3.302 3.324 3.580 3.264 3.302 3.321 3.336 3.330 3.305 3.306 3.329 3.335 3.321 3.302 3.267 3.602 3.324 3.302 3.305 3.323 3.303 3.314 3.329 3.579 3.321 3.290 3.314 3.333 3.336 3.324 3.303 2.006
# coordination-number N 3.178 3.176 3.180 3.177
# coordination-number Ti 6.525
# coordination-number O 1.029 1.986
# coordination-number H 0.992 0.996
# diagonal-C6 C 24.25 24.04 23.91 23.94 24.14 24.38 24.01 20.22 23.98 24.14 24.25 24.04 24.23 24.26 24.04 20.52 24.60 24.27 24.07 23.91 23.97 24.24 24.23 23.99 23.91 24.07 24.26 24.57 20.26 24.04 24.26 24.23 24.05 24.25 24.14 23.98 20.53 24.08 24.38 24.14 23.94 23.91 24.04 24.25 29.48
# diagonal-C6 N 15.60 15.60 15.60 15.60
# diagonal-C6 Ti 321.59
# diagonal-C6 O 12.79 10.41
# diagonal-C6 H 3.09 3.09
EvdW_6 =   -0.043231
EvdW_8 =   -0.033634

# Ionic positions in cartesian coordinates:
ion C  -0.080300637982482   0.080553404415474  43.299973987433766 1
ion C  20.963017482380369   4.045921144218333  43.222520520570427 1
ion C  18.621287691916454   8.053024614927793  43.063102725609419 1
ion C  -7.118157070809915  12.057084634644040  43.082999162005777 1
ion C  -9.444340508437945  16.063906761825759  43.248560467081546 1
ion C   4.608867394592059   0.188188178541299   0.103297548797033 1
ion C   2.192657512334072   4.184947591196275   0.212580404113174 1
ion C  -0.206556265435224   8.029166702398918   0.090852257684475 1
ion C  -2.507189882230039  12.041432382166819  43.181131232393689 1
ion C  -4.796449267752446  16.069253759245015  43.222138030636863 1
ion C   9.296431646458826   0.094269407216525  43.299530400615964 1
ion C   7.014082084015592   4.197673178155244   0.230100529556047 1
ion C  -0.108062564922262  15.987506726252837   0.079837649523647 1
ion C   2.269155868014385  19.942246093996179  43.324512751971604 1
ion C  11.685831559909456   4.041740664819192  43.257335948748270 1
ion C   9.414686812176718   8.039750886782354   0.170492423586978 1
ion C   4.596782569707999  15.845736883688206   0.287874150486926 1
ion C   6.918799707332921  19.943127860396267  43.317111122965947 1
ion C  16.324818427153502   4.024627651597124  43.161464939139925 1
ion C  14.020657621090809   8.050021478733770  43.103038743258537 1
ion C  11.709527330208118  12.051441911610972  43.267016188525474 1
ion C   9.301386632913260  15.988346714783461   0.129140244460201 1
ion C  -0.100072655972115   2.758069116604524   0.049469687729261 1
ion C  -2.504272200841447   6.701826998696674  43.170895334968904 1
ion C  -4.816672434552588  10.705721642034646  43.066417891515250 1
ion C  -7.119481732581520  14.729436358415317  43.170983985626499 1
ion C  -9.448529167539260  18.749681235569074  43.308197143295438 1
ion C   4.605315638609791   2.909187180538985   0.229906038301534 1
ion C  -0.208624930701617  10.718552533461896   0.107847686904699 1
ion C  -2.479708402530992  14.715309019759120  43.240258918463041 1
ion C  -4.798189464302038  18.755489485636360  43.302016487843630 1
ion C   9.312260256639517   2.772227895383777   0.067056731516382 1
ion C   2.188622217756793  14.565336039416556   0.264046839220115 1
ion C  -0.093442576368377  18.665389180422977  43.312785092565704 1
ion C  14.002016736173854   2.685950723373364  43.235825463366041 1
ion C  11.711974274854921   6.715411517603951  43.227930838732988 1
ion C   9.414235923197849  10.725823128326418   0.205462740661255 1
ion C   7.005782750104871  14.561897552810469   0.312020501487589 1
ion C   4.594941911239923  18.563569464343502   0.139795214047234 1
ion C  18.649180818464753   2.686870380755503  43.215386197426476 1
ion C  16.321905755701000   6.697183903194734  43.071665504717963 1
ion C  14.018997040863116  10.719998905363637  43.114920171824629 1
ion C  11.677666432615908  14.724119851222367  43.305237624632589 1
ion C   9.281425643005431  18.665949345534326  43.321694014479924 1
ion C   4.570880545093090   9.071161129923819   5.471865660872401 1
ion N   2.052200950324129  11.981349329495492   0.430597462633362 1
ion N   7.146281915703248  11.977939400003619   0.513467135573903 1
ion N   2.057824547338241   6.765016691622752   0.377957376498276 1
ion N   7.145645647785553   6.781055124400310   0.437926090837955 1
ion Ti   4.565581800149242   9.359350591178682   1.718431566461375 1
ion O   4.577571056119041   8.914623864043735   7.714902889606225 1
ion O   7.005228373908717   2.633032770890870   6.403637120558606 1
ion H   8.637161297486246   3.518057463822033   6.473328142305660 1
ion H   6.307431889620519   3.098963544538985   4.747026016160212 1

# Forces in Cartesian coordinates:
force C  -0.000003882905029   0.000113966654317   0.000194021479554 1
force C  -0.000055601484454   0.000026129607230   0.000073057156896 1
force C   0.000099143985961  -0.000159615924820  -0.000025660501853 1
force C   0.000064196376622  -0.000051834071161   0.000018955612457 1
force C  -0.000138323406475   0.000088022657743   0.000088479687347 1
force C   0.000012299715924  -0.000054383090387   0.000021680740705 1
force C   0.000058958873782   0.000084553418617  -0.000067899370461 1
force C   0.000113123536038  -0.000019413572703   0.000254260859796 1
force C   0.000111320980950  -0.000061826056200   0.000359257782230 1
force C   0.000022492152672  -0.000016194331454  -0.000047153930015 1
force C   0.000096288444864  -0.000092785842427   0.000039412436722 1
force C  -0.000054323166971   0.000042386547036   0.000045687085103 1
force C   0.000123437529003  -0.000121592849865   0.000142384342058 1
force C   0.000073219107869  -0.000105181829797  -0.000384859388236 1
force C  -0.000015632473370  -0.000024537228465   0.000007923099965 1
force C  -0.000110965010009  -0.000012957580171   0.000060329981141 1
force C   0.000018505352695  -0.000216874860766  -0.000246584095546 1
force C  -0.000085738738749   0.000059511103708   0.000113320028829 1
force C  -0.000045228757190  -0.000056562440026   0.000107778684102 1
force C   0.000038005758310  -0.000083614252611  -0.000004151286535 1
force C  -0.000127639988916  -0.000033593115984  -0.000346138190165 1
force C  -0.000214660963408   0.000040440097044  -0.000134551393887 1
force C   0.000028192120380   0.000112325307843   0.000070935792344 1
force C   0.000150075031130   0.000082955599041   0.000074887019759 1
force C   0.000120303088663   0.000004296733227  -0.000042022878768 1
force C  -0.000043659845408   0.000045703103432   0.000292274002263 1
force C   0.000012153728085   0.000040553483103   0.000132356243292 1
force C   0.000037694386656  -0.000066994051064  -0.000082784867848 1
force C   0.000019921691966   0.000008663135246   0.000301538027729 1
force C  -0.000008884453862  -0.000033780672174   0.000130821260752 1
force C  -0.000024489836833  -0.000089719220520  -0.000275996542832 1
force C  -0.000060526727905  -0.000052666658175   0.000207734439769 1
force C   0.000019639559420  -0.000117755366464  -0.000165997956193 1
force C   0.000027724915141  -0.000215103107776   0.000054639426608 1
force C  -0.000104118394298  -0.000036442313974  -0.000201383796689 1
force C  -0.000130086364706   0.000093355702135  -0.000032045432933 1
force C  -0.000095890799480  -0.000015026165741  -0.000116531282964 1
force C  -0.000099419566236  -0.000088550050323  -0.000112338019072 1
force C   0.000010583825888  -0.000245129359720  -0.000271733332427 1
force C  -0.000037233170916   0.000103141127134   0.000177969859257 1
force C   0.000016110140781   0.000060367281363   0.000102885876545 1
force C  -0.000012299311151   0.000067910145410  -0.000025948240320 1
force C  -0.000116332623650   0.000020033594733  -0.000255738325772 1
force C   0.000017538515541   0.000028922423977   0.000226557325613 1
force C   0.000090959205973   0.000078797321431   0.000670583323736 1
force N  -0.000020928662154   0.000074306728924  -0.000194334984601 1
force N  -0.000063670786739   0.000008886618326  -0.000117292304499 1
force N   0.000190177299718   0.000087388595965   0.000093827735214 1
force N  -0.000252647262418   0.000111983707408   0.000137336203973 1
force Ti  -0.000142983067402   0.000409521700462  -0.000569804046249 1
force O  -0.000016744230009   0.000120888788540  -0.000180896892898 1
force O  -0.000025498829231  -0.000281398176035  -0.000028307335119 1
force H  -0.000495361880352  -0.000136674721545   0.000071068733548 1
force H   0.000271139501033   0.000192864601342  -0.000067929009932 1

# Energy components:
   A_diel =       -0.0412419387155787
   Eewald =     1645.5331129774647252
       EH =     1964.2040933188327472
     Eloc =    -4142.9374242825660986
      Enl =       52.5887088501715141
     EvdW =       -0.0768648489881605
      Exc =     -109.6871284688900801
 Exc_core =        3.3095187519416251
       KE =      198.3692985541541418
  MuShift =       -0.0064575714058394
-------------------------------------
     Etot =     -388.7443846580009108
       TS =        0.0003401676273409
-------------------------------------
        F =     -388.7447248256282251
      muN =      -28.8212879723308788
-------------------------------------
        G =     -359.9234368532973463


Dumping 'jdft.fillings' ... done
Dumping 'jdft.wfns' ... done
Dumping 'jdft.fluidState' ... done
Dumping 'jdft.ionpos' ... done
Dumping 'jdft.lattice' ... done
Dumping 'jdft.eigenvals' ... done
Dumping 'jdft.eigStats' ... 
	eMin: -2.251540 at state 9 ( [ +0.000000 +0.000000 +0.000000 ] spin -1 )
	HOMO: -0.133841 at state 17 ( [ -0.333333 -0.333333 +0.000000 ] spin -1 )
	mu  : -0.127200
	LUMO: -0.126981 at state 0 ( [ +0.000000 +0.000000 +0.000000 ] spin 1 )
	eMax: +0.022366 at state 0 ( [ +0.000000 +0.000000 +0.000000 ] spin 1 )
	HOMO-LUMO gap: +0.006860
	Optical gap  : +0.016735 at state 11 ( [ +0.000000 -0.333333 +0.000000 ] spin -1 )
Dumping 'jdft.Ecomponents' ... done
IonicMinimize: Iter:   1  G: -359.923436853297346  |grad|_K:  1.506e-04  alpha:  1.000e+00  linmin: -3.722e-01  t[s]:   2946.47

#--- Lowdin population analysis ---
# oxidation-state C +0.035 +0.038 +0.035 +0.043 +0.034 +0.033 +0.162 +0.118 +0.027 +0.034 +0.033 +0.142 +0.020 +0.034 +0.035 +0.119 -0.012 +0.035 +0.026 +0.034 +0.027 +0.020 +0.020 +0.028 +0.035 +0.027 +0.034 -0.032 +0.120 +0.038 +0.033 +0.014 +0.164 +0.035 +0.034 +0.026 +0.121 +0.163 +0.038 +0.034 +0.043 +0.035 +0.038 +0.035 -0.107
# magnetic-moments C -0.002 -0.009 +0.000 +0.000 +0.002 +0.001 -0.019 -0.010 +0.002 +0.002 -0.002 -0.019 +0.003 -0.003 -0.008 -0.009 +0.005 -0.003 -0.003 +0.000 +0.002 +0.003 +0.002 +0.001 -0.002 -0.006 -0.004 +0.003 -0.012 -0.010 -0.004 +0.003 -0.018 -0.002 +0.001 +0.001 -0.011 -0.018 -0.000 +0.001 -0.001 -0.001 -0.009 -0.003 -0.521
# oxidation-state N -0.343 -0.342 -0.336 -0.340
# magnetic-moments N -0.001 +0.003 +0.002 +0.005
# oxidation-state Ti +1.352
# magnetic-moments Ti -0.829
# oxidation-state O -0.277 -0.773
# magnetic-moments O -0.274 -0.001
# oxidation-state H +0.454 +0.411
# magnetic-moments H -0.000 -0.002


Computing DFT-D3 correction:
# coordination-number C 3.303 3.324 3.335 3.333 3.315 3.290 3.326 3.605 3.329 3.314 3.303 3.324 3.305 3.302 3.324 3.580 3.264 3.302 3.321 3.336 3.330 3.305 3.306 3.329 3.335 3.321 3.302 3.267 3.602 3.324 3.302 3.305 3.323 3.303 3.314 3.329 3.579 3.321 3.290 3.314 3.333 3.336 3.324 3.303 2.005
# coordination-number N 3.178 3.176 3.180 3.177
# coordination-number Ti 6.526
# coordination-number O 1.029 1.986
# coordination-number H 0.992 0.996
# diagonal-C6 C 24.25 24.04 23.91 23.94 24.14 24.38 24.01 20.21 23.98 24.14 24.25 24.04 24.23 24.26 24.04 20.52 24.59 24.27 24.07 23.91 23.98 24.24 24.23 23.98 23.92 24.07 24.26 24.57 20.25 24.04 24.26 24.23 24.05 24.25 24.14 23.98 20.53 24.07 24.38 24.14 23.94 23.91 24.04 24.25 29.48
# diagonal-C6 N 15.60 15.60 15.60 15.60
# diagonal-C6 Ti 321.59
# diagonal-C6 O 12.79 10.41
# diagonal-C6 H 3.09 3.09
EvdW_6 =   -0.043230
EvdW_8 =   -0.033634
Shifting auxilliary hamiltonian by -0.000001 to set nElectrons=226.582453

-------- Electronic minimization -----------
	Linear fluid (dielectric constant: 78.4, screening length: 8.12261 Bohr) occupying 0.713858 of unit cell:	Completed after 3 iterations at t[s]:   3001.06
	FillingsUpdate:  mu: -0.127200000  nElectrons: 226.582453  magneticMoment: [ Abs: 2.01457  Tot: -1.86573 ]
ElecMinimize: Iter:   0  G: -359.923439639391574  |grad|_K:  9.922e-08  alpha:  1.000e+00
	Linear fluid (dielectric constant: 78.4, screening length: 8.12261 Bohr) occupying 0.713866 of unit cell:	Completed after 4 iterations at t[s]:   3106.98
	Linear fluid (dielectric constant: 78.4, screening length: 8.12261 Bohr) occupying 0.713861 of unit cell:	Completed after 3 iterations at t[s]:   3146.75
	FillingsUpdate:  mu: -0.127200000  nElectrons: 226.583197  magneticMoment: [ Abs: 2.01412  Tot: -1.86498 ]
	SubspaceRotationAdjust: set factor to 0.474
ElecMinimize: Iter:   1  G: -359.923440466666591  |grad|_K:  7.470e-08  alpha:  3.902e-01  linmin:  1.707e-04  t[s]:   3199.03
	Linear fluid (dielectric constant: 78.4, screening length: 8.12261 Bohr) occupying 0.713852 of unit cell:	Completed after 3 iterations at t[s]:   3246.06
	Linear fluid (dielectric constant: 78.4, screening length: 8.12261 Bohr) occupying 0.713854 of unit cell:	Completed after 0 iterations at t[s]:   3284.20
	FillingsUpdate:  mu: -0.127200000  nElectrons: 226.582069  magneticMoment: [ Abs: 2.01463  Tot: -1.86606 ]
	SubspaceRotationAdjust: set factor to 0.305
ElecMinimize: Iter:   2  G: -359.923440866083126  |grad|_K:  3.142e-08  alpha:  3.397e-01  linmin:  1.200e-03  t[s]:   3336.05
	Linear fluid (dielectric constant: 78.4, screening length: 8.12261 Bohr) occupying 0.713854 of unit cell:	Completed after 0 iterations at t[s]:   3380.08
ElecMinimize: 	Predicted alpha/alphaT>3.000000, increasing alphaT to 1.019152e+00.
	Linear fluid (dielectric constant: 78.4, screening length: 8.12261 Bohr) occupying 0.713855 of unit cell:	Completed after 2 iterations at t[s]:   3418.95
	Linear fluid (dielectric constant: 78.4, screening length: 8.12261 Bohr) occupying 0.713855 of unit cell:	Completed after 0 iterations at t[s]:   3456.55
	FillingsUpdate:  mu: -0.127200000  nElectrons: 226.582270  magneticMoment: [ Abs: 2.01450  Tot: -1.86585 ]
	SubspaceRotationAdjust: set factor to 0.231
ElecMinimize: Iter:   3  G: -359.923440976749418  |grad|_K:  2.653e-08  alpha:  5.654e-01  linmin:  2.191e-03  t[s]:   3508.16
	Linear fluid (dielectric constant: 78.4, screening length: 8.12261 Bohr) occupying 0.713853 of unit cell:	Completed after 1 iterations at t[s]:   3553.36
	Linear fluid (dielectric constant: 78.4, screening length: 8.12261 Bohr) occupying 0.713854 of unit cell:	Completed after 0 iterations at t[s]:   3590.44
	FillingsUpdate:  mu: -0.127200000  nElectrons: 226.582094  magneticMoment: [ Abs: 2.01459  Tot: -1.86601 ]
	SubspaceRotationAdjust: set factor to 0.17
ElecMinimize: Iter:   4  G: -359.923441007668885  |grad|_K:  1.286e-08  alpha:  3.504e-01  linmin: -7.937e-04  t[s]:   3642.72
	Linear fluid (dielectric constant: 78.4, screening length: 8.12261 Bohr) occupying 0.713854 of unit cell:	Completed after 0 iterations at t[s]:   3686.42
	Linear fluid (dielectric constant: 78.4, screening length: 8.12261 Bohr) occupying 0.713855 of unit cell:	Completed after 0 iterations at t[s]:   3724.39
	FillingsUpdate:  mu: -0.127200000  nElectrons: 226.582281  magneticMoment: [ Abs: 2.01449  Tot: -1.86583 ]
	SubspaceRotationAdjust: set factor to 0.206
ElecMinimize: Iter:   5  G: -359.923441025329225  |grad|_K:  8.323e-09  alpha:  8.152e-01  linmin:  1.812e-03  t[s]:   3776.38
ElecMinimize: Converged (|Delta G|<1.000000e-07 for 2 iters).
Setting wave functions to eigenvectors of Hamiltonian
Converging empty states (this may take a while): |deigs|: 6.562e-09

Computing DFT-D3 correction:
# coordination-number C 3.303 3.324 3.335 3.333 3.315 3.290 3.326 3.605 3.329 3.314 3.303 3.324 3.305 3.302 3.324 3.580 3.264 3.302 3.321 3.336 3.330 3.305 3.306 3.329 3.335 3.321 3.302 3.267 3.602 3.324 3.302 3.305 3.323 3.303 3.314 3.329 3.579 3.321 3.290 3.314 3.333 3.336 3.324 3.303 2.005
# coordination-number N 3.178 3.176 3.180 3.177
# coordination-number Ti 6.526
# coordination-number O 1.029 1.986
# coordination-number H 0.992 0.996
# diagonal-C6 C 24.25 24.04 23.91 23.94 24.14 24.38 24.01 20.21 23.98 24.14 24.25 24.04 24.23 24.26 24.04 20.52 24.59 24.27 24.07 23.91 23.98 24.24 24.23 23.98 23.92 24.07 24.26 24.57 20.25 24.04 24.26 24.23 24.05 24.25 24.14 23.98 20.53 24.07 24.38 24.14 23.94 23.91 24.04 24.25 29.48
# diagonal-C6 N 15.60 15.60 15.60 15.60
# diagonal-C6 Ti 321.59
# diagonal-C6 O 12.79 10.41
# diagonal-C6 H 3.09 3.09
EvdW_6 =   -0.043230
EvdW_8 =   -0.033634

# Ionic positions in cartesian coordinates:
ion C  -0.080126782285855   0.080659689109430  43.300260281635929 1
ion C  20.963046601526610   4.046082108234373  43.222618186989280 1
ion C  18.621453766738362   8.053011133577728  43.063049367919305 1
ion C  -7.118021251809419  12.057121568852176  43.083015297441854 1
ion C  -9.444432282655725  16.064098382443888  43.248684563656212 1
ion C   4.608889569365419   0.188006416608284   0.103326597934567 1
ion C   2.192783623000431   4.185101217953786   0.212464385527604 1
ion C  -0.206390334478572   8.029194518288209   0.091229435548242 1
ion C  -2.506978341509184  12.041384357455502  43.181677649343520 1
ion C  -4.796456890119131  16.069224115583289  43.222053085659049 1
ion C   9.296466950362143   0.094048667212905  43.299584279497481 1
ion C   7.013964968538463   4.197751431832992   0.230157889543669 1
ion C  -0.107902018122989  15.987196714857761   0.080051795533714 1
ion C   2.269176238370969  19.942008721771046  43.323911695465725 1
ion C  11.685627137990471   4.041794099930118  43.257343763671983 1
ion C   9.414493058321339   8.039782077635046   0.170583571678095 1
ion C   4.596846074869397  15.845268462343206   0.287496139403652 1
ion C   6.918727658424006  19.943191379196175  43.317277718804426 1
ion C  16.324753616605367   4.024701059762497  43.161619425788992 1
ion C  14.020635885551817   8.050082650822496  43.103026026146225 1
ion C  11.709324091994592  12.051373788001239  43.266476494745390 1
ion C   9.301104021140777  15.988340165387493   0.128924390672128 1
ion C  -0.100097130565376   2.758298772295390   0.049565102877257 1
ion C  -2.503976191673777   6.701814442678123  43.171000773581326 1
ion C  -4.816419728137198  10.705548614262957  43.066334227321811 1
ion C  -7.119537880364012  14.729504754108097  43.171433471813664 1
ion C  -9.448575439762291  18.749812257940352  43.308390369736522 1
ion C   4.605426017230885   2.909161443641297   0.229773603661000 1
ion C  -0.208570037071445  10.718535093944661   0.108300999867853 1
ion C  -2.479626729393096  14.715293157244446  43.240447077888618 1
ion C  -4.798132120684793  18.755432287605753  43.301576577622939 1
ion C   9.312337565158103   2.772195794666230   0.067366095691438 1
ion C   2.188701379750370  14.565173409290468   0.263785287888760 1
ion C  -0.093226896847192  18.665181373539884  43.312869405607977 1
ion C  14.002004814861746   2.685868162499177  43.235506775065240 1
ion C  11.711903336175713   6.715463297051657  43.227862991500267 1
ion C   9.414140934051662  10.725821249515125   0.205279978793399 1
ion C   7.005622727392652  14.561838640062044   0.311844372535912 1
ion C   4.594996644245995  18.563275919846621   0.139369652144234 1
ion C  18.649074131476098   2.686998422549628  43.215650876023325 1
ion C  16.321999710115591   6.697013726378160  43.071821204538836 1
ion C  14.018966130609783  10.719976763575097  43.114879618773152 1
ion C  11.677410832564465  14.724163206439481  43.304843313180612 1
ion C   9.281381145975438  18.666051480521507  43.322035709233511 1
ion C   4.571042434348652   9.071312612745093   5.472394177524746 1
ion N   2.052193853181884  11.981519154339466   0.430300560966326 1
ion N   7.146185961788540  11.977930045306861   0.513297905416058 1
ion N   2.058182751805244   6.765144192385456   0.378112946912049 1
ion N   7.145228878961380   6.781248605068447   0.438151067805101 1
ion Ti   4.565386360421693   9.360013365513609   1.717497540512186 1
ion O   4.577568521827892   8.914777487926775   7.715122365101242 1
ion O   7.005045586418928   2.632747285920272   6.403147340261709 1
ion H   8.636398195562936   3.517841452861446   6.473423209487485 1
ion H   6.308052878754267   3.099140801417117   4.747354358059265 1

# Forces in Cartesian coordinates:
force C  -0.000138751447624   0.000155017372566   0.000197243951366 1
force C  -0.000083283922295  -0.000045520071863   0.000092536136078 1
force C   0.000094769012450  -0.000234020785337  -0.000011823463920 1
force C   0.000024821555613  -0.000097334653014   0.000041585521951 1
force C  -0.000182879196126  -0.000011491987370   0.000091360228588 1
force C   0.000040490360425   0.000055908960060  -0.000015358747334 1
force C   0.000060901306777   0.000046355609034  -0.000055475980513 1
force C   0.000138645032847  -0.000023356285971   0.000246162036101 1
force C   0.000034082701328  -0.000068436868373   0.000318747807897 1
force C   0.000057033615658  -0.000024990307138  -0.000022647793856 1
force C   0.000159643413207  -0.000012828203956   0.000026435843920 1
force C  -0.000013812578002   0.000023680165683   0.000057969434825 1
force C   0.000091331987087   0.000002720315111   0.000106237449833 1
force C   0.000127154718104  -0.000043819161694  -0.000339430217172 1
force C   0.000124225889322  -0.000076017812823   0.000003565687285 1
force C  -0.000088113060014  -0.000023136027857   0.000049103361044 1
force C  -0.000020645586792  -0.000028581762900  -0.000256852490063 1
force C  -0.000077937596755   0.000044869690877   0.000101808641399 1
force C  -0.000047630554751  -0.000130993124219   0.000087666241590 1
force C   0.000071337281830  -0.000153591284982  -0.000007457681615 1
force C  -0.000067313081076   0.000017374759893  -0.000315519369558 1
force C  -0.000148799594409   0.000081590670238  -0.000121644252849 1
force C   0.000096823993382   0.000056212201851   0.000072355384924 1
force C   0.000071322445206   0.000139894724683   0.000085081852981 1
force C   0.000043159691702   0.000115357926508   0.000003392801351 1
force C  -0.000034406498608   0.000023772318662   0.000224747214204 1
force C   0.000055833972677  -0.000005417118483   0.000133380008186 1
force C  -0.000015396660290  -0.000093192637370  -0.000078597853717 1
force C   0.000025345690117   0.000013092184454   0.000279294796207 1
force C  -0.000028739948639  -0.000073181945035   0.000150697527964 1
force C  -0.000046807706387  -0.000112273010838  -0.000207661676324 1
force C  -0.000162444351098  -0.000064493097928   0.000169420153676 1
force C   0.000002715878246  -0.000084488740255  -0.000171695399876 1
force C  -0.000081342981970  -0.000235192169759   0.000009810738775 1
force C  -0.000161341528847  -0.000028696188181  -0.000183803882388 1
force C  -0.000180143466535   0.000104397910689  -0.000009325189446 1
force C  -0.000105154044893  -0.000032708284976  -0.000135142711792 1
force C  -0.000052423519558  -0.000117570861879  -0.000154627244055 1
force C   0.000003548963970  -0.000216566980577  -0.000266165011402 1
force C   0.000017819809929   0.000079065318269   0.000167865540460 1
force C  -0.000022206374403   0.000218121627914   0.000081414021445 1
force C   0.000017716974643   0.000117490910011  -0.000064592737634 1
force C  -0.000053097555205   0.000021789631865  -0.000246275427019 1
force C   0.000050071430174   0.000017218375915   0.000200069394285 1
force C   0.000084906625553   0.000110830243670   0.000255775549090 1
force N   0.000034207811745  -0.000049596604910  -0.000146312539393 1
force N  -0.000049257289752  -0.000016976096034  -0.000123340980054 1
force N   0.000161860137753   0.000081654077001   0.000068807126708 1
force N  -0.000176271588908   0.000083251590187   0.000101238248265 1
force Ti  -0.000191557396616   0.000501008324794  -0.000448746884470 1
force O  -0.000004203489381   0.000095813744352  -0.000042231064819 1
force O  -0.000049407050704  -0.000467032995987   0.000348184519940 1
force H  -0.000297519731625  -0.000047638179321   0.000111466183189 1
force H   0.000074458963148   0.000286114360052  -0.000464816692446 1

# Energy components:
   A_diel =       -0.0412124834662143
   Eewald =     1645.5445458158951624
       EH =     1964.2154199539352248
     Eloc =    -4142.9610900030502307
      Enl =       52.5891430995974147
     EvdW =       -0.0768640378595844
      Exc =     -109.6874498138676302
 Exc_core =        3.3095188125464166
       KE =      198.3700768882430623
  MuShift =       -0.0064556674175432
-------------------------------------
     Etot =     -388.7443674354440191
       TS =        0.0003397176830036
-------------------------------------
        F =     -388.7447071531270240
      muN =      -28.8212661277977951
-------------------------------------
        G =     -359.9234410253292253


Dumping 'jdft.fillings' ... done
Dumping 'jdft.wfns' ... done
Dumping 'jdft.fluidState' ... done
Dumping 'jdft.ionpos' ... done
Dumping 'jdft.lattice' ... done
Dumping 'jdft.eigenvals' ... done
Dumping 'jdft.eigStats' ... 
	eMin: -2.251632 at state 9 ( [ +0.000000 +0.000000 +0.000000 ] spin -1 )
	HOMO: -0.133821 at state 17 ( [ -0.333333 -0.333333 +0.000000 ] spin -1 )
	mu  : -0.127200
	LUMO: -0.126986 at state 0 ( [ +0.000000 +0.000000 +0.000000 ] spin 1 )
	eMax: +0.022355 at state 0 ( [ +0.000000 +0.000000 +0.000000 ] spin 1 )
	HOMO-LUMO gap: +0.006834
	Optical gap  : +0.016704 at state 11 ( [ +0.000000 -0.333333 +0.000000 ] spin -1 )
Dumping 'jdft.Ecomponents' ... done
IonicMinimize: Iter:   2  G: -359.923441025329225  |grad|_K:  1.441e-04  alpha:  1.000e+00  linmin: -6.501e-01  t[s]:   3902.42

#--- Lowdin population analysis ---
# oxidation-state C +0.035 +0.038 +0.035 +0.043 +0.034 +0.033 +0.162 +0.118 +0.027 +0.034 +0.033 +0.142 +0.020 +0.034 +0.035 +0.119 -0.012 +0.035 +0.026 +0.034 +0.027 +0.020 +0.020 +0.028 +0.035 +0.027 +0.034 -0.032 +0.120 +0.038 +0.033 +0.014 +0.164 +0.035 +0.034 +0.026 +0.121 +0.163 +0.038 +0.034 +0.043 +0.035 +0.038 +0.035 -0.106
# magnetic-moments C -0.002 -0.009 +0.000 +0.000 +0.002 +0.001 -0.019 -0.010 +0.002 +0.002 -0.002 -0.019 +0.003 -0.003 -0.008 -0.009 +0.005 -0.003 -0.003 +0.000 +0.002 +0.003 +0.002 +0.001 -0.002 -0.006 -0.004 +0.003 -0.012 -0.010 -0.004 +0.003 -0.018 -0.002 +0.001 +0.001 -0.011 -0.018 -0.000 +0.001 -0.001 -0.001 -0.009 -0.003 -0.520
# oxidation-state N -0.343 -0.342 -0.336 -0.339
# magnetic-moments N -0.001 +0.003 +0.002 +0.005
# oxidation-state Ti +1.351
# magnetic-moments Ti -0.829
# oxidation-state O -0.277 -0.773
# magnetic-moments O -0.273 -0.001
# oxidation-state H +0.454 +0.411
# magnetic-moments H -0.000 -0.002


Computing DFT-D3 correction:
# coordination-number C 3.303 3.324 3.335 3.333 3.314 3.290 3.326 3.607 3.329 3.314 3.303 3.324 3.306 3.302 3.324 3.580 3.265 3.302 3.321 3.336 3.330 3.305 3.306 3.329 3.335 3.321 3.302 3.267 3.606 3.324 3.302 3.305 3.324 3.303 3.314 3.329 3.580 3.322 3.290 3.314 3.333 3.336 3.324 3.303 2.005
# coordination-number N 3.179 3.177 3.180 3.177
# coordination-number Ti 6.533
# coordination-number O 1.028 1.987
# coordination-number H 0.993 0.996
# diagonal-C6 C 24.25 24.04 23.92 23.94 24.14 24.38 24.01 20.19 23.98 24.14 24.25 24.04 24.23 24.26 24.04 20.52 24.59 24.27 24.07 23.91 23.98 24.24 24.23 23.98 23.92 24.07 24.26 24.57 20.21 24.04 24.26 24.24 24.03 24.25 24.15 23.99 20.52 24.06 24.38 24.15 23.95 23.91 24.04 24.25 29.48
# diagonal-C6 N 15.60 15.60 15.60 15.60
# diagonal-C6 Ti 321.59
# diagonal-C6 O 12.79 10.41
# diagonal-C6 H 3.09 3.09
EvdW_6 =   -0.043228
EvdW_8 =   -0.033632
Shifting auxilliary hamiltonian by 0.000003 to set nElectrons=226.582281

-------- Electronic minimization -----------
	Linear fluid (dielectric constant: 78.4, screening length: 8.12261 Bohr) occupying 0.713851 of unit cell:	Completed after 6 iterations at t[s]:   3959.21
	FillingsUpdate:  mu: -0.127200000  nElectrons: 226.582281  magneticMoment: [ Abs: 2.01444  Tot: -1.86582 ]
ElecMinimize: Iter:   0  G: -359.923421995003366  |grad|_K:  3.616e-07  alpha:  1.000e+00
[...]
# oxidation-state O -0.275 -0.773
# magnetic-moments O -0.273 -0.002
# oxidation-state H +0.455 +0.409
# magnetic-moments H -0.000 -0.002


Computing DFT-D3 correction:
# coordination-number C 3.303 3.324 3.336 3.333 3.314 3.290 3.326 3.609 3.330 3.314 3.303 3.324 3.306 3.302 3.324 3.581 3.266 3.302 3.321 3.336 3.330 3.305 3.306 3.329 3.336 3.321 3.302 3.267 3.607 3.324 3.302 3.305 3.324 3.304 3.314 3.329 3.581 3.322 3.290 3.314 3.333 3.336 3.324 3.303 2.005
# coordination-number N 3.179 3.177 3.180 3.177
# coordination-number Ti 6.536
# coordination-number O 1.029 1.986
# coordination-number H 0.992 0.996
# diagonal-C6 C 24.25 24.04 23.91 23.94 24.14 24.38 24.02 20.17 23.98 24.14 24.25 24.04 24.23 24.26 24.04 20.51 24.59 24.26 24.07 23.91 23.98 24.23 24.23 23.98 23.91 24.07 24.26 24.58 20.19 24.04 24.26 24.24 24.04 24.25 24.14 23.98 20.51 24.06 24.37 24.14 23.94 23.91 24.03 24.25 29.48
# diagonal-C6 N 15.60 15.60 15.60 15.60
# diagonal-C6 Ti 321.59
# diagonal-C6 O 12.79 10.41
# diagonal-C6 H 3.09 3.09
EvdW_6 =   -0.043177
EvdW_8 =   -0.033634
Shifting auxilliary hamiltonian by -0.000010 to set nElectrons=226.572866

-------- Electronic minimization -----------
	Linear fluid (dielectric constant: 78.4, screening length: 8.12261 Bohr) occupying 0.713785 of unit cell:	Completed after 3 iterations at t[s]:  38236.24
	FillingsUpdate:  mu: -0.127200000  nElectrons: 226.572866  magneticMoment: [ Abs: 2.02090  Tot: -1.87579 ]
ElecMinimize: Iter:   0  G: -359.923571820465611  |grad|_K:  1.615e-07  alpha:  1.000e+00
	Linear fluid (dielectric constant: 78.4, screening length: 8.12261 Bohr) occupying 0.713800 of unit cell:	Completed after 4 iterations at t[s]:  38350.24
	Linear fluid (dielectric constant: 78.4, screening length: 8.12261 Bohr) occupying 0.713794 of unit cell:	Completed after 2 iterations at t[s]:  38391.09
	FillingsUpdate:  mu: -0.127200000  nElectrons: 226.574341  magneticMoment: [ Abs: 2.02016  Tot: -1.87435 ]
	SubspaceRotationAdjust: set factor to 0.239
ElecMinimize: Iter:   1  G: -359.923575304821952  |grad|_K:  8.613e-08  alpha:  6.284e-01  linmin:  2.507e-04  t[s]:  38446.09
	Linear fluid (dielectric constant: 78.4, screening length: 8.12261 Bohr) occupying 0.713797 of unit cell:	Completed after 2 iterations at t[s]:  38494.79
	Linear fluid (dielectric constant: 78.4, screening length: 8.12261 Bohr) occupying 0.713796 of unit cell:	Completed after 0 iterations at t[s]:  38534.37
	FillingsUpdate:  mu: -0.127200000  nElectrons: 226.574328  magneticMoment: [ Abs: 2.02019  Tot: -1.87436 ]
	SubspaceRotationAdjust: set factor to 0.244
ElecMinimize: Iter:   2  G: -359.923576061060430  |grad|_K:  6.003e-08  alpha:  4.788e-01  linmin:  1.667e-03  t[s]:  38590.72
	Linear fluid (dielectric constant: 78.4, screening length: 8.12261 Bohr) occupying 0.713800 of unit cell:	Completed after 2 iterations at t[s]:  38639.93
	Linear fluid (dielectric constant: 78.4, screening length: 8.12261 Bohr) occupying 0.713800 of unit cell:	Completed after 0 iterations at t[s]:  38678.88
	FillingsUpdate:  mu: -0.127200000  nElectrons: 226.574785  magneticMoment: [ Abs: 2.01994  Tot: -1.87390 ]
	SubspaceRotationAdjust: set factor to 0.305
ElecMinimize: Iter:   3  G: -359.923576430288563  |grad|_K:  3.032e-08  alpha:  5.230e-01  linmin: -2.549e-03  t[s]:  38734.49
	Linear fluid (dielectric constant: 78.4, screening length: 8.12261 Bohr) occupying 0.713802 of unit cell:	Completed after 0 iterations at t[s]:  38781.29
	Linear fluid (dielectric constant: 78.4, screening length: 8.12261 Bohr) occupying 0.713805 of unit cell:	Completed after 0 iterations at t[s]:  38820.04
	FillingsUpdate:  mu: -0.127200000  nElectrons: 226.575300  magneticMoment: [ Abs: 2.01964  Tot: -1.87340 ]
	SubspaceRotationAdjust: set factor to 0.419
ElecMinimize: Iter:   4  G: -359.923576680641872  |grad|_K:  2.170e-08  alpha:  1.117e+00  linmin: -9.966e-06  t[s]:  38876.05
	Linear fluid (dielectric constant: 78.4, screening length: 8.12261 Bohr) occupying 0.713811 of unit cell:	Completed after 2 iterations at t[s]:  38924.60
	Linear fluid (dielectric constant: 78.4, screening length: 8.12261 Bohr) occupying 0.713807 of unit cell:	Completed after 0 iterations at t[s]:  38964.12
	FillingsUpdate:  mu: -0.127200000  nElectrons: 226.575603  magneticMoment: [ Abs: 2.01945  Tot: -1.87310 ]
	SubspaceRotationAdjust: set factor to 0.399
ElecMinimize: Iter:   5  G: -359.923576688287142  |grad|_K:  3.256e-08  alpha:  4.721e-01  linmin:  4.689e-04  t[s]:  39019.95
	Linear fluid (dielectric constant: 78.4, screening length: 8.12261 Bohr) occupying 0.713813 of unit cell:	Completed after 2 iterations at t[s]:  39068.86
	Linear fluid (dielectric constant: 78.4, screening length: 8.12261 Bohr) occupying 0.713810 of unit cell:	Completed after 0 iterations at t[s]:  39107.99
	FillingsUpdate:  mu: -0.127200000  nElectrons: 226.575953  magneticMoment: [ Abs: 2.01921  Tot: -1.87275 ]
	SubspaceRotationAdjust: set factor to 0.39
ElecMinimize: Iter:   6  G: -359.923576725181704  |grad|_K:  1.826e-08  alpha:  2.188e-01  linmin:  4.781e-04  t[s]:  39163.80
ElecMinimize: Converged (|Delta G|<1.000000e-07 for 2 iters).
Setting wave functions to eigenvectors of Hamiltonian
Converging empty states (this may take a while): |deigs|: 6.155e-09

Computing DFT-D3 correction:
# coordination-number C 3.303 3.324 3.336 3.333 3.314 3.290 3.326 3.609 3.330 3.314 3.303 3.324 3.306 3.302 3.324 3.581 3.266 3.302 3.321 3.336 3.330 3.305 3.306 3.329 3.336 3.321 3.302 3.267 3.607 3.324 3.302 3.305 3.324 3.304 3.314 3.329 3.581 3.322 3.290 3.314 3.333 3.336 3.324 3.303 2.005
# coordination-number N 3.179 3.177 3.180 3.177
# coordination-number Ti 6.536
# coordination-number O 1.029 1.986
# coordination-number H 0.992 0.996
# diagonal-C6 C 24.25 24.04 23.91 23.94 24.14 24.38 24.02 20.17 23.98 24.14 24.25 24.04 24.23 24.26 24.04 20.51 24.59 24.26 24.07 23.91 23.98 24.23 24.23 23.98 23.91 24.07 24.26 24.58 20.19 24.04 24.26 24.24 24.04 24.25 24.14 23.98 20.51 24.06 24.37 24.14 23.94 23.91 24.03 24.25 29.48
# diagonal-C6 N 15.60 15.60 15.60 15.60
# diagonal-C6 Ti 321.59
# diagonal-C6 O 12.79 10.41
# diagonal-C6 H 3.09 3.09
EvdW_6 =   -0.043177
EvdW_8 =   -0.033634

# Ionic positions in cartesian coordinates:
ion C  -0.078876538949255   0.081258664460366  43.316367606825658 1
ion C  20.964582401001376   4.045994074115523  43.265433143475242 1
ion C  18.623724812025710   8.052205404121406  43.109153397035783 1
ion C  -7.116251242329252  12.056310206040596  43.102092804326446 1
ion C  -9.444117983249232  16.063703471059203  43.248023339978801 1
ion C   4.610313800834560   0.187083545252264   0.118972277410126 1
ion C   2.195496830387655   4.184925220309323   0.245205334942539 1
ion C  -0.204901711222548   8.029061397981561   0.143733476818852 1
ion C  -2.506509588067179  12.040430141437470  43.222929724529649 1
ion C  -4.795546569723416  16.068358303092868  43.237986335947355 1
ion C   9.298160156487800   0.093080691220236  43.290174364029312 1
ion C   7.016059552191038   4.197091368196649   0.232328898382680 1
ion C  -0.106799672475267  15.986586007201407   0.069196434528003 1
ion C   2.270857975646605  19.940663361220938  43.290405172341025 1
ion C  11.687087459228900   4.040596391799693  43.240051146103390 1
ion C   9.414990569126168   8.038709999928557   0.144467283761870 1
ion C   4.598116128036969  15.844349226644269   0.240057926414158 1
ion C   6.919953304328070  19.942793539349942  43.305894613670056 1
ion C  16.326451155180973   4.024171646681324  43.169533918515675 1
ion C  14.022705351578560   8.049042162723751  43.099231920962914 1
ion C  11.709823475621935  12.050764684861447  43.228810787064283 1
ion C   9.301583280465691  15.988325203011758   0.090663113875100 1
ion C  -0.098129256660529   2.758739105583238   0.085482938808821 1
ion C  -2.502101204386975   6.701761873382297  43.227840600971021 1
ion C  -4.815045111179224  10.704703221128410  43.109232555351305 1
ion C  -7.118785724433226  14.729056410411966  43.187129744583586 1
ion C  -9.447611222582756  18.749247659500295  43.321303960665944 1
ion C   4.607532802324054   2.908025701702692   0.247528523452895 1
ion C  -0.207861090910246  10.718418124050778   0.144949680503144 1
ion C  -2.478872415071880  14.714375781144714  43.258284766083989 1
ion C  -4.796782084551722  18.754619565872385  43.307259095272897 1
ion C   9.313852196818349   2.771060680500624   0.057779624092162 1
ion C   2.190414949402411  14.565344178477229   0.239057607753692 1
ion C  -0.091813028184944  18.663974131913079  43.289126522216101 1
ion C  14.003356410744146   2.684743839803689  43.216702220431102 1
ion C  11.712910172886719   6.714363741540258  43.209898363120494 1
ion C   9.413595320984236  10.725075223648250   0.156802825891202 1
ion C   7.005876681162309  14.560725236163476   0.257177688571456 1
ion C   4.596402480679792  18.561838829902857   0.101973548928155 1
ion C  18.650673504448523   2.687109362532125  43.233300775756277 1
ion C  16.324394380115887   6.696943650706546  43.092536771179219 1
ion C  14.020933562498232  10.719254500793305  43.107208354070835 1
ion C  11.677406397336114  14.723444373538490  43.274027778908675 1
ion C   9.282812194692646  18.666380030018249  43.312658058711357 1
ion C   4.594814733219129   9.114967629216641   5.469432560692193 1
ion N   2.055558960517085  11.984179061254714   0.427791843350741 1
ion N   7.145294543445106  11.977067898239033   0.452163043737030 1
ion N   2.061976979462232   6.764957173919162   0.414318098480052 1
ion N   7.147139535121564   6.781731895490092   0.429753934513769 1
ion Ti   4.576494993936320   9.371207670456242   1.710901008966152 1
ion O   4.601815327236820   8.975710691629537   7.713063682318049 1
ion O   6.943852209318409   2.555220974014272   6.345341614837279 1
ion H   8.540808240102239   3.473705307536341   6.587248321093132 1
ion H   6.340255615383360   3.130061765218823   4.685581865749162 1

# Forces in Cartesian coordinates:
force C   0.000062440284690   0.000000235770352  -0.000009456312857 1
force C   0.000040338375297   0.000029269288388  -0.000023738424550 1
force C  -0.000015460808403   0.000036915277569  -0.000032627056413 1
force C  -0.000046043744732   0.000002626192914  -0.000005812012785 1
force C   0.000030092683654   0.000019904098394  -0.000011802466850 1
force C   0.000028895211758  -0.000014485348807  -0.000149551768569 1
force C  -0.000050866958865   0.000055669459440  -0.000040548351649 1
force C   0.000140464818110  -0.000106325287949  -0.000033645346290 1
force C  -0.000013386747615  -0.000033756187548   0.000032252989022 1
force C  -0.000015261181118  -0.000018006057037  -0.000013725219179 1
force C  -0.000051089294478   0.000016179120810   0.000026322136486 1
force C  -0.000047563806800   0.000004573010806  -0.000124522912809 1
force C  -0.000068239620828   0.000020510834010   0.000039939533576 1
force C  -0.000038647368579  -0.000039807323872   0.000031170316156 1
force C  -0.000031387051083  -0.000007496052232   0.000118082924584 1
force C  -0.000095145995303  -0.000002819478587  -0.000025452788318 1
force C   0.000045400554602  -0.000017238159393  -0.000044211148886 1
force C   0.000027298958347   0.000036857494923   0.000048852238621 1
force C  -0.000027913200064  -0.000025683457738  -0.000028602071743 1
force C  -0.000068760736638   0.000048912418851   0.000006725664654 1
force C  -0.000059789707482   0.000037453659585  -0.000008902701480 1
force C  -0.000020154472849  -0.000024750480066   0.000053360857700 1
force C  -0.000048075880465  -0.000039465316224  -0.000033996252135 1
force C  -0.000155505732649   0.000027587667860  -0.000068667430455 1
force C  -0.000020925980284  -0.000025931784410  -0.000011738040179 1
force C   0.000008872760507  -0.000101256194807  -0.000031751805239 1
force C   0.000034218806467   0.000064187421282  -0.000016424048479 1
force C   0.000033008648582   0.000038921587288  -0.000153374319574 1
force C   0.000099957996723  -0.000044355998585   0.000059218479459 1
force C  -0.000038525840530  -0.000008649737511   0.000087836313073 1
force C  -0.000019707705210  -0.000018283805379  -0.000062709448557 1
force C  -0.000088016728831   0.000034017541299  -0.000020884831684 1
force C   0.000029989740353  -0.000077944034141   0.000048505873878 1
force C  -0.000016734660983  -0.000055648947228   0.000036892195002 1
force C  -0.000057237376279  -0.000002889295040   0.000031157153924 1
force C   0.000017548477412   0.000005315518201   0.000071074490589 1
force C  -0.000051073742465  -0.000124385175283   0.000044457589096 1
force C  -0.000079809529595  -0.000005077357774   0.000090617649343 1
force C  -0.000019605637277   0.000052029145600   0.000007632320473 1
force C   0.000013728088171   0.000056809843643  -0.000031562481528 1
force C  -0.000087132302234  -0.000074202657834   0.000015758545000 1
force C  -0.000098014542117   0.000014489746908  -0.000032445961769 1
force C   0.000032001893990   0.000082019499150  -0.000016990663003 1
force C   0.000001547342701   0.000009452851233   0.000081602144537 1
force C   0.000123021966311   0.000086481575404  -0.000021359937607 1
force N   0.000097071409679  -0.000161244496925  -0.000024144391435 1
force N  -0.000053493258841   0.000036532396970   0.000076464343286 1
force N   0.000057958804355   0.000034658994565   0.000136486005853 1
force N  -0.000138716858734  -0.000005469029998  -0.000231989232114 1
force Ti   0.000124855576622   0.000017833303473  -0.000345461774431 1
force O   0.000041430328958   0.000120299567360   0.000111101119205 1
force O  -0.000018703425412   0.000391547250871   0.000126736165564 1
force H  -0.000441974046955  -0.000248518008426   0.000009698800942 1
force H   0.000120327984887  -0.000145312805284   0.000032653657172 1

# Energy components:
   A_diel =       -0.0409075288100434
   Eewald =     1646.2961345993921896
       EH =     1964.9812483984683240
     Eloc =    -4144.4864145474712132
      Enl =       52.5909619863679794
     EvdW =       -0.0768108558787629
      Exc =     -109.6890167297771370
 Exc_core =        3.3095304688820835
       KE =      198.3779550683865409
  MuShift =       -0.0063855145292988
-------------------------------------
     Etot =     -388.7437046549692354
       TS =        0.0003333311467564
-------------------------------------
        F =     -388.7440379861159840
      muN =      -28.8204612609343052
-------------------------------------
        G =     -359.9235767251817038


Dumping 'jdft.fillings' ... done
Dumping 'jdft.wfns' ... done
Dumping 'jdft.fluidState' ... done
Dumping 'jdft.ionpos' ... done
Dumping 'jdft.lattice' ... done
Dumping 'jdft.eigenvals' ... done
Dumping 'jdft.eigStats' ... 
	eMin: -2.251694 at state 9 ( [ +0.000000 +0.000000 +0.000000 ] spin -1 )
	HOMO: -0.133937 at state 17 ( [ -0.333333 -0.333333 +0.000000 ] spin -1 )
	mu  : -0.127200
	LUMO: -0.126876 at state 0 ( [ +0.000000 +0.000000 +0.000000 ] spin 1 )
	eMax: +0.022474 at state 0 ( [ +0.000000 +0.000000 +0.000000 ] spin 1 )
	HOMO-LUMO gap: +0.007061
	Optical gap  : +0.016507 at state 11 ( [ +0.000000 -0.333333 +0.000000 ] spin -1 )
Dumping 'jdft.Ecomponents' ... done
IonicMinimize: Iter:  22  G: -359.923576725181704  |grad|_K:  8.475e-05  alpha:  1.000e+00  linmin: -4.832e-01  t[s]:  39298.34
IonicMinimize: Converged (|grad|_K<1.000000e-04).

#--- Lowdin population analysis ---
# oxidation-state C +0.035 +0.038 +0.035 +0.043 +0.034 +0.034 +0.161 +0.118 +0.028 +0.034 +0.034 +0.141 +0.020 +0.034 +0.035 +0.119 -0.012 +0.035 +0.026 +0.034 +0.027 +0.020 +0.020 +0.028 +0.035 +0.027 +0.034 -0.032 +0.119 +0.039 +0.034 +0.014 +0.164 +0.035 +0.034 +0.026 +0.122 +0.163 +0.038 +0.034 +0.043 +0.035 +0.039 +0.035 -0.107
# magnetic-moments C -0.002 -0.009 +0.000 +0.000 +0.002 +0.001 -0.019 -0.010 +0.002 +0.002 -0.002 -0.019 +0.003 -0.003 -0.008 -0.009 +0.005 -0.003 -0.003 -0.000 +0.002 +0.003 +0.002 +0.001 -0.002 -0.006 -0.004 +0.003 -0.012 -0.010 -0.004 +0.002 -0.018 -0.002 +0.001 +0.001 -0.012 -0.018 -0.000 +0.001 -0.001 -0.002 -0.010 -0.003 -0.521
# oxidation-state N -0.342 -0.342 -0.335 -0.340
# magnetic-moments N -0.000 +0.002 +0.002 +0.004
# oxidation-state Ti +1.352
# magnetic-moments Ti -0.831
# oxidation-state O -0.276 -0.774
# magnetic-moments O -0.274 -0.002
# oxidation-state H +0.455 +0.409
# magnetic-moments H -0.000 -0.002


Dumping 'jdft.n_up' ... done
Dumping 'jdft.n_dn' ... done
Dumping 'jdft.tau_up' ... done
Dumping 'jdft.tau_dn' ... done
Dumping 'jdft.eigenvals' ... done
Dumping 'jdft.eigStats' ... 
	eMin: -2.251694 at state 9 ( [ +0.000000 +0.000000 +0.000000 ] spin -1 )
	HOMO: -0.133937 at state 17 ( [ -0.333333 -0.333333 +0.000000 ] spin -1 )
	mu  : -0.127200
	LUMO: -0.126876 at state 0 ( [ +0.000000 +0.000000 +0.000000 ] spin 1 )
	eMax: +0.022474 at state 0 ( [ +0.000000 +0.000000 +0.000000 ] spin 1 )
	HOMO-LUMO gap: +0.007061
	Optical gap  : +0.016507 at state 11 ( [ +0.000000 -0.333333 +0.000000 ] spin -1 )
Dumping 'jdft.kPts' ... done
Dumping 'jdft.dosUp' ... done.
Dumping 'jdft.dosDn' ... done.
End date and time: Mon Aug  8 23:57:58 2022  (Duration: 0-10:56:25.18)
Done!

PROFILER:             augmentDensityGrid     0.724636 +/-     0.939459 s, 2310 calls,   1673.909445 s total
PROFILER:         augmentDensityGridGrad     0.491397 +/-     0.640555 s, 1350 calls,    663.385521 s total
PROFILER:        augmentDensitySpherical     0.000473 +/-     0.000694 s, 2310 calls,      1.092839 s total
PROFILER:    augmentDensitySphericalGrad     0.000580 +/-     0.001048 s, 1720 calls,      0.997289 s total
PROFILER:                 augmentOverlap     1.524528 +/-     2.302721 s, 5315 calls,   8102.867421 s total
PROFILER:                     diagouterI    15.491634 +/-     0.448163 s,  465 calls,   7203.609755 s total
PROFILER:              EdensityAndVscloc     9.523995 +/-     2.300869 s,  462 calls,   4400.085811 s total
PROFILER:                     EnlAndGrad     0.001489 +/-     0.002651 s, 2805 calls,      4.177098 s total
PROFILER:            ExCorrCommunication     0.074023 +/-     0.087413 s, 3049 calls,    225.697234 s total
PROFILER:               ExCorrFunctional     0.024342 +/-     0.005549 s,  538 calls,     13.096239 s total
PROFILER:                    ExCorrTotal     0.696719 +/-     0.151704 s,  538 calls,    374.834666 s total
PROFILER:                   Idag_DiagV_I    29.262916 +/-     7.148373 s,  319 calls,   9334.870163 s total
PROFILER:                    initWeights     1.853382 +/-     0.000000 s,    1 calls,      1.853382 s total
PROFILER:                    inv(matrix)     0.003322 +/-     0.005912 s,  456 calls,      1.514779 s total
PROFILER:            matrix::diagonalize     0.008335 +/-     0.005763 s,  780 calls,      6.501000 s total
PROFILER:                    matrix::set     0.000003 +/-     0.000007 s, 49344 calls,      0.124421 s total
PROFILER:            orthoMatrix(matrix)     0.001893 +/-     0.001178 s,  511 calls,      0.967481 s total
PROFILER:     RadialFunctionR::transform     0.017398 +/-     0.146758 s,  146 calls,      2.540056 s total
PROFILER:                    reduceKmesh     0.000000 +/-     0.000000 s,    1 calls,      0.000000 s total
PROFILER:   VanDerWaalsD3::energyAndGrad     0.040126 +/-     0.003738 s,   51 calls,      2.046417 s total
PROFILER:               WavefunctionDrag    31.180404 +/-     3.401621 s,   25 calls,    779.510106 s total
PROFILER:                            Y*M     0.687921 +/-     0.863076 s, 9010 calls,   6198.164555 s total
PROFILER:                          Y1^Y2     0.711700 +/-     0.904821 s, 6907 calls,   4915.708613 s total

MEMUSAGE:                   ColumnBundle     1.340214 GB
MEMUSAGE:        complexScalarFieldTilde     0.074158 GB
MEMUSAGE:                    IndexArrays     0.023178 GB
MEMUSAGE:                         matrix     0.020731 GB
MEMUSAGE:                           misc     0.051230 GB
MEMUSAGE:                    ScalarField     0.358429 GB
MEMUSAGE:               ScalarFieldTilde     0.262436 GB
MEMUSAGE:                          Total     1.620245 GB
