
*************** JDFTx 1.7.0 (git hash 5f12716a) ***************

Start date and time: Wed Nov  9 13:08:48 2022
Executable /home/nisi6161/jdftx_alpine/build/jdftx with command-line: -i in
Running on hosts (process indices):  c3cpu-c11-u5-3.rc.int.colorado.edu (0-17)
Divided in process groups (process indices):  0 (0)  1 (1)  2 (2)  3 (3)  4 (4)  5 (5)  6 (6)  7 (7)  8 (8)  9 (9)  10 (10)  11 (11)  12 (12)  13 (13)  14 (14)  15 (15)  16 (16)  17 (17)
Resource initialization completed at t[s]:      0.00
Run totals: 18 processes, 48 threads, 0 GPUs


Input parsed successfully to the following command list (including defaults):

basis kpoint-dependent
converge-empty-states yes
coords-type Cartesian
core-overlap-check none
coulomb-interaction Periodic
davidson-band-ratio 1.1
density-of-states Etol 1.000000e-06 Esigma 1.000000e-03 \
		Complete \
	Total \
	OrthoOrbital C 1   s \
	OrthoOrbital C 1   p \
	OrthoOrbital C 1   px \
	OrthoOrbital C 1   py \
	OrthoOrbital C 1   pz \
	OrthoOrbital C 2   s \
	OrthoOrbital C 2   p \
	OrthoOrbital C 2   px \
	OrthoOrbital C 2   py \
	OrthoOrbital C 2   pz \
	OrthoOrbital C 3   s \
	OrthoOrbital C 3   p \
	OrthoOrbital C 3   px \
	OrthoOrbital C 3   py \
	OrthoOrbital C 3   pz \
	OrthoOrbital C 4   s \
	OrthoOrbital C 4   p \
	OrthoOrbital C 4   px \
	OrthoOrbital C 4   py \
	OrthoOrbital C 4   pz \
	OrthoOrbital C 5   s \
	OrthoOrbital C 5   p \
	OrthoOrbital C 5   px \
	OrthoOrbital C 5   py \
	OrthoOrbital C 5   pz \
	OrthoOrbital C 6   s \
	OrthoOrbital C 6   p \
	OrthoOrbital C 6   px \
	OrthoOrbital C 6   py \
	OrthoOrbital C 6   pz \
	OrthoOrbital C 7   s \
	OrthoOrbital C 7   p \
	OrthoOrbital C 7   px \
	OrthoOrbital C 7   py \
	OrthoOrbital C 7   pz \
	OrthoOrbital C 8   s \
	OrthoOrbital C 8   p \
	OrthoOrbital C 8   px \
	OrthoOrbital C 8   py \
	OrthoOrbital C 8   pz \
	OrthoOrbital C 9   s \
	OrthoOrbital C 9   p \
	OrthoOrbital C 9   px \
	OrthoOrbital C 9   py \
	OrthoOrbital C 9   pz \
	OrthoOrbital C 10   s \
	OrthoOrbital C 10   p \
	OrthoOrbital C 10   px \
	OrthoOrbital C 10   py \
	OrthoOrbital C 10   pz \
	OrthoOrbital C 11   s \
	OrthoOrbital C 11   p \
	OrthoOrbital C 11   px \
	OrthoOrbital C 11   py \
	OrthoOrbital C 11   pz \
	OrthoOrbital C 12   s \
	OrthoOrbital C 12   p \
	OrthoOrbital C 12   px \
	OrthoOrbital C 12   py \
	OrthoOrbital C 12   pz \
	OrthoOrbital C 13   s \
	OrthoOrbital C 13   p \
	OrthoOrbital C 13   px \
	OrthoOrbital C 13   py \
	OrthoOrbital C 13   pz \
	OrthoOrbital C 14   s \
	OrthoOrbital C 14   p \
	OrthoOrbital C 14   px \
	OrthoOrbital C 14   py \
	OrthoOrbital C 14   pz \
	OrthoOrbital C 15   s \
	OrthoOrbital C 15   p \
	OrthoOrbital C 15   px \
	OrthoOrbital C 15   py \
	OrthoOrbital C 15   pz \
	OrthoOrbital C 16   s \
	OrthoOrbital C 16   p \
	OrthoOrbital C 16   px \
	OrthoOrbital C 16   py \
	OrthoOrbital C 16   pz \
	OrthoOrbital C 17   s \
	OrthoOrbital C 17   p \
	OrthoOrbital C 17   px \
	OrthoOrbital C 17   py \
	OrthoOrbital C 17   pz \
	OrthoOrbital C 18   s \
	OrthoOrbital C 18   p \
	OrthoOrbital C 18   px \
	OrthoOrbital C 18   py \
	OrthoOrbital C 18   pz \
	OrthoOrbital C 19   s \
	OrthoOrbital C 19   p \
	OrthoOrbital C 19   px \
	OrthoOrbital C 19   py \
	OrthoOrbital C 19   pz \
	OrthoOrbital C 20   s \
	OrthoOrbital C 20   p \
	OrthoOrbital C 20   px \
	OrthoOrbital C 20   py \
	OrthoOrbital C 20   pz \
	OrthoOrbital C 21   s \
	OrthoOrbital C 21   p \
	OrthoOrbital C 21   px \
	OrthoOrbital C 21   py \
	OrthoOrbital C 21   pz \
	OrthoOrbital C 22   s \
	OrthoOrbital C 22   p \
	OrthoOrbital C 22   px \
	OrthoOrbital C 22   py \
	OrthoOrbital C 22   pz \
	OrthoOrbital C 23   s \
	OrthoOrbital C 23   p \
	OrthoOrbital C 23   px \
	OrthoOrbital C 23   py \
	OrthoOrbital C 23   pz \
	OrthoOrbital C 24   s \
	OrthoOrbital C 24   p \
	OrthoOrbital C 24   px \
	OrthoOrbital C 24   py \
	OrthoOrbital C 24   pz \
	OrthoOrbital C 25   s \
	OrthoOrbital C 25   p \
	OrthoOrbital C 25   px \
	OrthoOrbital C 25   py \
	OrthoOrbital C 25   pz \
	OrthoOrbital C 26   s \
	OrthoOrbital C 26   p \
	OrthoOrbital C 26   px \
	OrthoOrbital C 26   py \
	OrthoOrbital C 26   pz \
	OrthoOrbital C 27   s \
	OrthoOrbital C 27   p \
	OrthoOrbital C 27   px \
	OrthoOrbital C 27   py \
	OrthoOrbital C 27   pz \
	OrthoOrbital C 28   s \
	OrthoOrbital C 28   p \
	OrthoOrbital C 28   px \
	OrthoOrbital C 28   py \
	OrthoOrbital C 28   pz \
	OrthoOrbital C 29   s \
	OrthoOrbital C 29   p \
	OrthoOrbital C 29   px \
	OrthoOrbital C 29   py \
	OrthoOrbital C 29   pz \
	OrthoOrbital C 30   s \
	OrthoOrbital C 30   p \
	OrthoOrbital C 30   px \
	OrthoOrbital C 30   py \
	OrthoOrbital C 30   pz \
	OrthoOrbital C 31   s \
	OrthoOrbital C 31   p \
	OrthoOrbital C 31   px \
	OrthoOrbital C 31   py \
	OrthoOrbital C 31   pz \
	OrthoOrbital C 32   s \
	OrthoOrbital C 32   p \
	OrthoOrbital C 32   px \
	OrthoOrbital C 32   py \
	OrthoOrbital C 32   pz \
	OrthoOrbital C 33   s \
	OrthoOrbital C 33   p \
	OrthoOrbital C 33   px \
	OrthoOrbital C 33   py \
	OrthoOrbital C 33   pz \
	OrthoOrbital C 34   s \
	OrthoOrbital C 34   p \
	OrthoOrbital C 34   px \
	OrthoOrbital C 34   py \
	OrthoOrbital C 34   pz \
	OrthoOrbital C 35   s \
	OrthoOrbital C 35   p \
	OrthoOrbital C 35   px \
	OrthoOrbital C 35   py \
	OrthoOrbital C 35   pz \
	OrthoOrbital C 36   s \
	OrthoOrbital C 36   p \
	OrthoOrbital C 36   px \
	OrthoOrbital C 36   py \
	OrthoOrbital C 36   pz \
	OrthoOrbital C 37   s \
	OrthoOrbital C 37   p \
	OrthoOrbital C 37   px \
	OrthoOrbital C 37   py \
	OrthoOrbital C 37   pz \
	OrthoOrbital C 38   s \
	OrthoOrbital C 38   p \
	OrthoOrbital C 38   px \
	OrthoOrbital C 38   py \
	OrthoOrbital C 38   pz \
	OrthoOrbital C 39   s \
	OrthoOrbital C 39   p \
	OrthoOrbital C 39   px \
	OrthoOrbital C 39   py \
	OrthoOrbital C 39   pz \
	OrthoOrbital C 40   s \
	OrthoOrbital C 40   p \
	OrthoOrbital C 40   px \
	OrthoOrbital C 40   py \
	OrthoOrbital C 40   pz \
	OrthoOrbital C 41   s \
	OrthoOrbital C 41   p \
	OrthoOrbital C 41   px \
	OrthoOrbital C 41   py \
	OrthoOrbital C 41   pz \
	OrthoOrbital C 42   s \
	OrthoOrbital C 42   p \
	OrthoOrbital C 42   px \
	OrthoOrbital C 42   py \
	OrthoOrbital C 42   pz \
	OrthoOrbital C 43   s \
	OrthoOrbital C 43   p \
	OrthoOrbital C 43   px \
	OrthoOrbital C 43   py \
	OrthoOrbital C 43   pz \
	OrthoOrbital C 44   s \
	OrthoOrbital C 44   p \
	OrthoOrbital C 44   px \
	OrthoOrbital C 44   py \
	OrthoOrbital C 44   pz \
	OrthoOrbital C 45   s \
	OrthoOrbital C 45   p \
	OrthoOrbital C 45   px \
	OrthoOrbital C 45   py \
	OrthoOrbital C 45   pz \
	OrthoOrbital N 1   s \
	OrthoOrbital N 1   p \
	OrthoOrbital N 1   px \
	OrthoOrbital N 1   py \
	OrthoOrbital N 1   pz \
	OrthoOrbital N 2   s \
	OrthoOrbital N 2   p \
	OrthoOrbital N 2   px \
	OrthoOrbital N 2   py \
	OrthoOrbital N 2   pz \
	OrthoOrbital N 3   s \
	OrthoOrbital N 3   p \
	OrthoOrbital N 3   px \
	OrthoOrbital N 3   py \
	OrthoOrbital N 3   pz \
	OrthoOrbital N 4   s \
	OrthoOrbital N 4   p \
	OrthoOrbital N 4   px \
	OrthoOrbital N 4   py \
	OrthoOrbital N 4   pz \
	OrthoOrbital Ti 1   s \
	OrthoOrbital Ti 1   p \
	OrthoOrbital Ti 1   px \
	OrthoOrbital Ti 1   py \
	OrthoOrbital Ti 1   pz \
	OrthoOrbital Ti 1   d \
	OrthoOrbital Ti 1   dxy \
	OrthoOrbital Ti 1   dyz \
	OrthoOrbital Ti 1   dz2 \
	OrthoOrbital Ti 1   dxz \
	OrthoOrbital Ti 1   dx2-y2 \
	OrthoOrbital O 1   s \
	OrthoOrbital O 1   p \
	OrthoOrbital O 1   px \
	OrthoOrbital O 1   py \
	OrthoOrbital O 1   pz \
	OrthoOrbital O 2   s \
	OrthoOrbital O 2   p \
	OrthoOrbital O 2   px \
	OrthoOrbital O 2   py \
	OrthoOrbital O 2   pz \
	OrthoOrbital O 3   s \
	OrthoOrbital O 3   p \
	OrthoOrbital O 3   px \
	OrthoOrbital O 3   py \
	OrthoOrbital O 3   pz \
	OrthoOrbital H 1   s \
	OrthoOrbital H 2   s
dump End ElecDensity KEdensity BandEigs EigStats RhoAtom DOS Kpoints
dump Ionic State IonicPositions Lattice EigStats Ecomponents
dump 
dump 
dump 
dump 
dump 
dump 
dump 
dump 
dump-name jdft.$VAR
elec-cutoff 20
elec-eigen-algo Davidson
elec-ex-corr gga-PBE
elec-initial-magnetization 0.000000 no
elec-n-bands 140
elec-smearing Fermi 0.001
electronic-minimize  \
	dirUpdateScheme      FletcherReeves \
	linminMethod         DirUpdateRecommended \
	nIterations          100 \
	history              15 \
	knormThreshold       0 \
	energyDiffThreshold  1e-07 \
	nEnergyDiff          2 \
	alphaTstart          1 \
	alphaTmin            1e-10 \
	updateTestStepSize   yes \
	alphaTreduceFactor   0.1 \
	alphaTincreaseFactor 3 \
	nAlphaAdjustMax      3 \
	wolfeEnergy          0.0001 \
	wolfeGradient        0.9 \
	fdTest               no
exchange-regularization WignerSeitzTruncated
fluid LinearPCM 298.000000 1.013250
fluid-anion F- 0.5 MeanFieldLJ \
	epsBulk 1 \
	pMol 0 \
	epsInf 1 \
	Pvap 0 \
	sigmaBulk 0 \
	Rvdw 2.24877 \
	Res 0 \
	tauNuc 343133
fluid-cation Na+ 0.5 MeanFieldLJ \
	epsBulk 1 \
	pMol 0 \
	epsInf 1 \
	Pvap 0 \
	sigmaBulk 0 \
	Rvdw 2.19208 \
	Res 0 \
	tauNuc 343133
fluid-ex-corr lda-TF lda-PZ
fluid-gummel-loop 10 1.000000e-05
fluid-minimize  \
	dirUpdateScheme      PolakRibiere \
	linminMethod         DirUpdateRecommended \
	nIterations          400 \
	history              15 \
	knormThreshold       1e-11 \
	energyDiffThreshold  0 \
	nEnergyDiff          2 \
	alphaTstart          1 \
	alphaTmin            1e-10 \
	updateTestStepSize   yes \
	alphaTreduceFactor   0.1 \
	alphaTincreaseFactor 3 \
	nAlphaAdjustMax      6 \
	wolfeEnergy          0.0001 \
	wolfeGradient        0.9 \
	fdTest               no
fluid-solvent H2O 55.338 ScalarEOS \
	epsBulk 78.4 \
	pMol 0.92466 \
	epsInf 1.77 \
	Pvap 1.06736e-10 \
	sigmaBulk 4.62e-05 \
	Rvdw 2.61727 \
	Res 1.42 \
	tauNuc 343133 \
	poleEl 15 7 1
forces-output-coords Positions
ion C  -0.007682000000000   0.085065000000000   0.066312000000000 0
ion C  21.041404000000000   4.043156000000001   0.037330000000000 0
ion C  18.693410000000000   8.049201000000000  43.188703000000004 0
ion C  -7.053148000000000  12.050170000000000  43.177197000000007 0
ion C  -9.378275000000002  16.064971000000003   0.014318000000000 0
ion C   4.677823000000001   0.197793000000000   0.089497000000000 0
ion C   2.286866000000000   4.207875000000001   0.173717000000000 0
ion C  -0.127580000000000   8.029384000000002   0.111645000000000 0
ion C  -2.446143999999999  12.041956000000001  43.246580000000009 0
ion C  -4.735378000000002  16.071908000000004   0.003590000000000 0
ion C   9.370037999999999   0.086239000000000   0.027814000000000 0
ion C   7.084845000000000   4.194561000000001   0.122978000000000 0
ion C  -0.043536000000000  15.973900000000004   0.058612000000000 0
ion C   2.340902999999999  19.928194999999999   0.036335000000000 0
ion C  11.756594999999999   4.028965000000001  43.241260000000004 0
ion C   9.475444000000000   8.016406999999999   0.049182000000000 0
ion C   4.664431000000000  15.828322000000002   0.166104000000000 0
ion C   6.991383000000003  19.933162000000003   0.056493000000000 0
ion C  16.399016000000003   4.015032000000001  43.222400000000007 0
ion C  14.092956999999998   8.041061000000001  43.170449000000005 0
ion C  11.773734000000001  12.043476999999999  43.248873000000010 0
ion C   9.368575000000002  15.977555000000002   0.073449000000000 0
ion C  -0.020680000000000   2.772854000000001   0.086123000000000 0
ion C  -2.428108000000001   6.701664000000001   0.011463000000000 0
ion C  -4.751268000000001  10.702321000000001  43.181523000000006 0
ion C  -7.054819000000000  14.728910000000003  43.230056000000005 0
ion C  -9.379614000000002  18.753867000000003   0.062851000000000 0
ion C   4.680058000000001   2.916119000000001   0.157453000000000 0
ion C  -0.137986000000002  10.729106000000003   0.103469000000000 0
ion C  -2.413125000000001  14.715416000000001   0.013453000000000 0
ion C  -4.728864000000002  18.758176000000002   0.045679000000000 0
ion C   9.388708000000001   2.767150000000000   0.027035000000000 0
ion C   2.260109000000000  14.539726000000002   0.167056000000000 0
ion C  -0.023379000000002  18.655989000000005   0.031880000000000 0
ion C  14.079200000000002   2.672633000000000  43.242730000000009 0
ion C  11.786192000000000   6.702981000000001  43.219718000000007 0
ion C   9.471000999999998  10.718548000000002   0.073190000000000 0
ion C   7.060933000000002  14.545207000000003   0.157583000000000 0
ion C   4.666843000000002  18.546668000000004   0.085172000000000 0
ion C  18.723279999999999   2.679870000000001   0.012371000000000 0
ion C  16.396232000000005   6.693233000000002  43.174818000000009 0
ion C  14.086171000000000  10.712555000000002  43.178798000000008 0
ion C  11.739897000000001  14.720497000000003   0.026127000000000 0
ion C   9.355121000000002  18.663927999999999   0.062116000000000 0
ion C   4.940594000000000   8.321845000000000   5.404487000000000 1
ion N   2.128273000000000  11.956946000000002   0.265204000000000 0
ion N   7.190152000000000  11.947246000000002   0.223376000000000 0
ion N   2.160549000000000   6.811226000000000   0.265810000000000 0
ion N   7.207003000000000   6.776456000000001   0.194524000000000 0
ion Ti   4.719145999999999   9.358241000000001   1.684617000000000 0
ion O   4.086246000000002  10.658531000000000   5.148150000000001 1
ion O   5.296375000000000   7.185258000000001   7.423692000000002 1
ion O   7.227344000000000   2.447574000000000   6.731461000000002 1
ion H   6.445102000000000   4.168054000000001   6.890125000000002 1
ion H   5.797345000000000   1.317317000000000   6.398647000000002 1
ion-species /projects/musgravc/apps/jdftx-1.6.0/build/pseudopotentials/GBRV_v1.5/$ID_pbe_v1.uspp
ion-species /projects/musgravc/apps/jdftx-1.6.0/build/pseudopotentials/GBRV_v1.5/$ID_pbe_v1.2.uspp
ion-species /projects/musgravc/apps/jdftx-1.6.0/build/pseudopotentials/GBRV_v1.5/$ID_pbe_v1.4.uspp
ion-species /projects/musgravc/apps/jdftx-1.6.0/build/pseudopotentials/GBRV_v1.5/$ID_pbe_v1.5.uspp
ion-width Ecut
ionic-minimize  \
	dirUpdateScheme      L-BFGS \
	linminMethod         DirUpdateRecommended \
	nIterations          100 \
	history              15 \
	knormThreshold       0.0001 \
	energyDiffThreshold  1e-06 \
	nEnergyDiff          2 \
	alphaTstart          1 \
	alphaTmin            1e-10 \
	updateTestStepSize   yes \
	alphaTreduceFactor   0.1 \
	alphaTincreaseFactor 1 \
	nAlphaAdjustMax      1 \
	wolfeEnergy          0.0001 \
	wolfeGradient        0.9 \
	fdTest               no
kpoint   0.000000000000   0.000000000000   0.000000000000  1.00000000000000
kpoint-folding 3 3 1 
latt-move-scale 0 0 0
latt-scale 1 1 1 
lattice  \
	  23.436261999999999  -11.733459000000000    0.000000000000000  \
	   0.017994000000000   19.941849000000001    0.000000000000000  \
	   0.000000000000000    0.000000000000000   43.256312999999999 
lattice-minimize  \
	dirUpdateScheme      L-BFGS \
	linminMethod         DirUpdateRecommended \
	nIterations          0 \
	history              15 \
	knormThreshold       0 \
	energyDiffThreshold  1e-06 \
	nEnergyDiff          2 \
	alphaTstart          1 \
	alphaTmin            1e-10 \
	updateTestStepSize   yes \
	alphaTreduceFactor   0.1 \
	alphaTincreaseFactor 3 \
	nAlphaAdjustMax      3 \
	wolfeEnergy          0.0001 \
	wolfeGradient        0.9 \
	fdTest               no
lcao-params 30 1e-06 0.001
pcm-variant CANDLE
spintype z-spin
subspace-rotation-factor 1 yes
symmetries none
symmetry-threshold 0.0001
target-mu -0.1602 no

van-der-waals D3
vibrations \
	dr 0.01\
	centralDiff no\
	useConstraints yes\
	translationSym yes\
	rotationSym no\
	omegaMin 0.0002\
	T 298\
	omegaResolution 0.0001


Applied RMS atom displacement 0 bohrs to make symmetries exact.
Applied RMS atom displacement 0 bohrs to make symmetries exact.

---------- Initializing the Grid ----------
R = 
[      23.4363     -11.7335            0  ]
[     0.017994      19.9418            0  ]
[            0            0      43.2563  ]
unit cell volume = 20225.5
G =
[   0.267976   0.157673         -0  ]
[ -0.000241801   0.314933          0  ]
[          0         -0   0.145255  ]
Minimum fftbox size, Smin = [  96  96  176  ]
Chosen fftbox size, S = [  96  96  180  ]

---------- Exchange Correlation functional ----------
Initalized PBE GGA exchange.
Initalized PBE GGA correlation.

---------- Setting up pseudopotentials ----------
Width of ionic core gaussian charges (only for fluid interactions / plotting) set to 0.397384

Reading pseudopotential file '/projects/musgravc/apps/jdftx-1.6.0/build/pseudopotentials/GBRV_v1.5/c_pbe_v1.2.uspp':
  Title: C.  Created by USPP 7.3.6 on 3-2-2014
  Reference state energy: -5.406344.  4 valence electrons in orbitals:
    |200>  occupation: 2  eigenvalue: -0.504890
    |210>  occupation: 2  eigenvalue: -0.194356
  lMax: 1  lLocal: 2  QijEcut: 5
  4 projectors sampled on a log grid with 503 points:
    l: 0  eig: -0.504890  rCut: 1.3
    l: 0  eig: 0.000000  rCut: 1.3
    l: 1  eig: -0.194357  rCut: 1.3
    l: 1  eig: 0.000000  rCut: 1.3
  Partial core density with radius 1.1
  Transforming core density to a uniform radial grid of dG=0.02 with 1464 points.
  Transforming local potential to a uniform radial grid of dG=0.02 with 1464 points.
  Transforming nonlocal projectors to a uniform radial grid of dG=0.02 with 432 points.
  Transforming density augmentations to a uniform radial grid of dG=0.02 with 1464 points.
  Transforming atomic orbitals to a uniform radial grid of dG=0.02 with 432 points.
  Core radius for overlap checks: 1.30 bohrs.

Reading pseudopotential file '/projects/musgravc/apps/jdftx-1.6.0/build/pseudopotentials/GBRV_v1.5/n_pbe_v1.2.uspp':
  Title: N.  Created by USPP 7.3.6 on 3-2-2014
  Reference state energy: -9.763716.  5 valence electrons in orbitals:
    |200>  occupation: 2  eigenvalue: -0.681964
    |210>  occupation: 3  eigenvalue: -0.260726
  lMax: 1  lLocal: 2  QijEcut: 6
  4 projectors sampled on a log grid with 491 points:
    l: 0  eig: -0.681964  rCut: 1.15
    l: 0  eig: 0.000000  rCut: 1.15
    l: 1  eig: -0.260729  rCut: 1.2
    l: 1  eig: 0.500000  rCut: 1.2
  Partial core density with radius 0.8
  Transforming core density to a uniform radial grid of dG=0.02 with 1464 points.
  Transforming local potential to a uniform radial grid of dG=0.02 with 1464 points.
  Transforming nonlocal projectors to a uniform radial grid of dG=0.02 with 432 points.
  Transforming density augmentations to a uniform radial grid of dG=0.02 with 1464 points.
  Transforming atomic orbitals to a uniform radial grid of dG=0.02 with 432 points.
  Core radius for overlap checks: 1.20 bohrs.

Reading pseudopotential file '/projects/musgravc/apps/jdftx-1.6.0/build/pseudopotentials/GBRV_v1.5/ti_pbe_v1.4.uspp':
  Title: Ti.  Created by USPP 7.3.6 on 31-3-15
  Reference state energy: -59.020943.  12 valence electrons in orbitals:
    |300>  occupation: 2  eigenvalue: -2.777623
    |310>  occupation: 6  eigenvalue: -1.894596
    |400>  occupation: 2  eigenvalue: -0.438610
    |320>  occupation: 1  eigenvalue: -0.583119
  lMax: 2  lLocal: 3  QijEcut: 6
  6 projectors sampled on a log grid with 597 points:
    l: 0  eig: -2.777624  rCut: 1.8
    l: 0  eig: -0.438611  rCut: 1.8
    l: 1  eig: -1.894596  rCut: 1.8
    l: 1  eig: 0.500000  rCut: 1.8
    l: 2  eig: -0.583118  rCut: 1.8
    l: 2  eig: 0.150000  rCut: 1.8
  Partial core density with radius 0.8
  Transforming core density to a uniform radial grid of dG=0.02 with 1464 points.
  Transforming local potential to a uniform radial grid of dG=0.02 with 1464 points.
  Transforming nonlocal projectors to a uniform radial grid of dG=0.02 with 432 points.
  Transforming density augmentations to a uniform radial grid of dG=0.02 with 1464 points.
  Transforming atomic orbitals to a uniform radial grid of dG=0.02 with 432 points.
  Core radius for overlap checks: 1.80 bohrs.

Reading pseudopotential file '/projects/musgravc/apps/jdftx-1.6.0/build/pseudopotentials/GBRV_v1.5/o_pbe_v1.2.uspp':
  Title: O.  Created by USPP 7.3.6 on 3-2-2014
  Reference state energy: -15.894388.  6 valence electrons in orbitals:
    |200>  occupation: 2  eigenvalue: -0.878823
    |210>  occupation: 4  eigenvalue: -0.332131
  lMax: 2  lLocal: 2  QijEcut: 6
  5 projectors sampled on a log grid with 511 points:
    l: 0  eig: -0.878823  rCut: 1.25
    l: 0  eig: 0.000000  rCut: 1.25
    l: 1  eig: -0.332132  rCut: 1.25
    l: 1  eig: 0.000000  rCut: 1.25
    l: 2  eig: 1.000000  rCut: 1.25
  Partial core density with radius 0.7
  Transforming core density to a uniform radial grid of dG=0.02 with 1464 points.
  Transforming local potential to a uniform radial grid of dG=0.02 with 1464 points.
  Transforming nonlocal projectors to a uniform radial grid of dG=0.02 with 432 points.
  Transforming density augmentations to a uniform radial grid of dG=0.02 with 1464 points.
  Transforming atomic orbitals to a uniform radial grid of dG=0.02 with 432 points.
  Core radius for overlap checks: 1.25 bohrs.

Reading pseudopotential file '/projects/musgravc/apps/jdftx-1.6.0/build/pseudopotentials/GBRV_v1.5/h_pbe_v1.4.uspp':
  Title: H.  Created by USPP 7.3.6 on 2-4-15
  Reference state energy: -0.458849.  1 valence electrons in orbitals:
    |100>  occupation: 1  eigenvalue: -0.238595
  lMax: 0  lLocal: 1  QijEcut: 6
  2 projectors sampled on a log grid with 395 points:
    l: 0  eig: -0.238595  rCut: 1.2
    l: 0  eig: 1.000000  rCut: 1.2
  Transforming local potential to a uniform radial grid of dG=0.02 with 1464 points.
  Transforming nonlocal projectors to a uniform radial grid of dG=0.02 with 432 points.
  Transforming density augmentations to a uniform radial grid of dG=0.02 with 1464 points.
  Transforming atomic orbitals to a uniform radial grid of dG=0.02 with 432 points.
  Core radius for overlap checks: 1.20 bohrs.

Initialized 5 species with 55 total atoms.

Folded 1 k-points by 3x3x1 to 9 k-points.

---------- Setting up k-points, bands, fillings ----------
No reducable k-points. 
Computing the number of bands and number of electrons
Calculating initial fillings.
nElectrons: 232.000000   nBands: 140   nStates: 18

----- Setting up reduced wavefunction bases (one per k-point) -----
average nbasis = 86412.556 , ideal nbasis = 86404.907

----- Initializing Supercell corresponding to k-point mesh -----
Lattice vector linear combinations in supercell:
[   3   0   0  ]
[   0   3   0  ]
[   0   0   1  ]
Supercell lattice vectors:
[  70.3088  -35.2004  0  ]
[  0.053982  59.8255  0  ]
[  0  0  43.2563  ]

Initializing DFT-D3 calculator:
	Parameters set for gga-PBE functional
	s6:  1.000  s_r6:  1.217
	s8:  0.722  s_r8:  1.000
	Per-atom parameters loaded for:
	 C:  sqrtQ[a0]:  3.105  Rcov[a0]:  1.417  CN: [ 0.00 0.99 2.00 3.00 3.98 ]
	 N:  sqrtQ[a0]:  2.712  Rcov[a0]:  1.342  CN: [ 0.00 0.99 2.01 2.99 ]
	Ti:  sqrtQ[a0]:  6.288  Rcov[a0]:  2.305  CN: [ 0.00 1.83 3.87 ]
	 O:  sqrtQ[a0]:  2.594  Rcov[a0]:  1.191  CN: [ 0.00 0.99 1.99 ]
	 H:  sqrtQ[a0]:  2.007  Rcov[a0]:  0.605  CN: [ 0.91 0.00 ]

Initializing DFT-D2 calculator for fluid / solvation:
	 C:  C6:   30.35 Eh-a0^6  R0: 2.744 a0
	 N:  C6:   21.33 Eh-a0^6  R0: 2.640 a0
	Ti:  C6:  187.33 Eh-a0^6  R0: 2.952 a0
	 O:  C6:   12.14 Eh-a0^6  R0: 2.536 a0
	 H:  C6:    2.43 Eh-a0^6  R0: 1.892 a0

---------- Setting up ewald sum ----------
Optimum gaussian width for ewald sums = 5.573775 bohr.
Real space sum over 567 unit cells with max indices [  4  4  3  ]
Reciprocal space sum over 7803 terms with max indices [  8  8  13  ]

Computing DFT-D3 correction:
# coordination-number C 3.301 3.322 3.335 3.333 3.313 3.290 3.326 3.579 3.331 3.314 3.304 3.333 3.306 3.301 3.326 3.617 3.265 3.300 3.319 3.335 3.328 3.303 3.302 3.327 3.336 3.319 3.300 3.268 3.570 3.326 3.302 3.307 3.325 3.303 3.314 3.330 3.618 3.327 3.289 3.313 3.333 3.335 3.322 3.301 3.000
# coordination-number N 3.178 3.178 3.176 3.183
# coordination-number Ti 7.480
# coordination-number O 2.000 1.051 1.983
# coordination-number H 1.002 0.993
# diagonal-C6 C 24.28 24.06 23.92 23.94 24.16 24.37 24.02 20.54 23.96 24.14 24.25 23.94 24.23 24.27 24.02 20.08 24.59 24.28 24.09 23.92 24.00 24.25 24.26 24.00 23.91 24.09 24.28 24.57 20.65 24.02 24.26 24.21 24.03 24.26 24.15 23.97 20.07 24.01 24.38 24.16 23.95 23.92 24.06 24.27 25.67
# diagonal-C6 N 15.60 15.60 15.60 15.60
# diagonal-C6 Ti 321.59
# diagonal-C6 O 10.41 12.77 10.41
# diagonal-C6 H 3.09 3.09
EvdW_6 =   -0.044040
EvdW_8 =   -0.033561

---------- Allocating electronic variables ----------
Initializing wave functions:  linear combination of atomic orbitals
C pseudo-atom occupations:   s ( 2 )  p ( 2 )
N pseudo-atom occupations:   s ( 2 )  p ( 3 )
Ti pseudo-atom occupations:   s ( 2 0 )  p ( 6 )  d ( 4 )
O pseudo-atom occupations:   s ( 2 )  p ( 4 )
H pseudo-atom occupations:   s ( 1 )
	FillingsUpdate:  mu: -0.160200000  nElectrons: 232.000000  magneticMoment: [ Abs: 0.00445  Tot: +0.00000 ]
LCAOMinimize: Iter:   0  G: -361.6329729483862820  |grad|_K:  4.206e-03  alpha:  1.000e+00
	FillingsUpdate:  mu: -0.160200000  nElectrons: 232.000000  magneticMoment: [ Abs: 0.00437  Tot: -0.00000 ]
LCAOMinimize: Iter:   1  G: -363.0877566988671106  |grad|_K:  1.525e-03  alpha:  1.203e-01  linmin: -1.443e-01  cgtest:  1.749e+00  t[s]:    302.47
LCAOMinimize: Encountered beta<0, resetting CG.
LCAOMinimize: 	Wrong curvature in test step, increasing alphaT to 3.610022e-01.
	FillingsUpdate:  mu: -0.160200000  nElectrons: 232.000000  magneticMoment: [ Abs: 0.00455  Tot: -0.00032 ]
LCAOMinimize: Iter:   2  G: -363.3807869252934211  |grad|_K:  1.430e-03  alpha: -3.145e-01  linmin: -7.271e-02  cgtest:  8.194e-01  t[s]:    423.04
	FillingsUpdate:  mu: -0.160200000  nElectrons: 232.000000  magneticMoment: [ Abs: 0.00468  Tot: -0.00044 ]
LCAOMinimize: Iter:   3  G: -363.4362677970157165  |grad|_K:  1.330e-03  alpha:  2.796e-02  linmin: -9.510e-02  cgtest:  9.467e-01  t[s]:    547.33
LCAOMinimize: Encountered beta<0, resetting CG.
LCAOMinimize: 	Wrong curvature in test step, increasing alphaT to 8.388635e-02.
	FillingsUpdate:  mu: -0.160200000  nElectrons: 232.000000  magneticMoment: [ Abs: 0.00484  Tot: -0.00061 ]
LCAOMinimize: Iter:   4  G: -363.4801456688792314  |grad|_K:  1.283e-03  alpha: -1.630e+00  linmin: -1.035e-01  cgtest:  9.484e-01  t[s]:    669.98
	FillingsUpdate:  mu: -0.160200000  nElectrons: 232.000000  magneticMoment: [ Abs: 0.00500  Tot: -0.00078 ]
LCAOMinimize: Iter:   5  G: -363.5160524255305745  |grad|_K:  1.256e-03  alpha:  2.432e-02  linmin: -1.725e-01  cgtest:  9.592e-01  t[s]:    794.40
LCAOMinimize: 	Wrong curvature in test step, increasing alphaT to 7.294763e-02.
	FillingsUpdate:  mu: -0.160200000  nElectrons: 232.000000  magneticMoment: [ Abs: 0.00517  Tot: -0.00096 ]
LCAOMinimize: Iter:   6  G: -363.5508968975316861  |grad|_K:  1.245e-03  alpha: -9.123e-01  linmin: -1.947e-01  cgtest:  9.633e-01  t[s]:    912.49
	FillingsUpdate:  mu: -0.160200000  nElectrons: 232.000000  magneticMoment: [ Abs: 0.00537  Tot: -0.00117 ]
LCAOMinimize: Iter:   7  G: -363.5860898790256783  |grad|_K:  1.238e-03  alpha:  2.465e-02  linmin: -1.991e-01  cgtest:  9.606e-01  t[s]:   1034.69
LCAOMinimize: 	Wrong curvature in test step, increasing alphaT to 7.396125e-02.
	FillingsUpdate:  mu: -0.160200000  nElectrons: 232.000000  magneticMoment: [ Abs: 0.00559  Tot: -0.00141 ]
LCAOMinimize: Iter:   8  G: -363.6212086329783801  |grad|_K:  1.234e-03  alpha: -6.188e-01  linmin: -2.027e-01  cgtest:  9.580e-01  t[s]:   1154.90
	FillingsUpdate:  mu: -0.160200000  nElectrons: 232.000000  magneticMoment: [ Abs: 0.00586  Tot: -0.00169 ]
LCAOMinimize: Iter:   9  G: -363.6570941308366969  |grad|_K:  1.231e-03  alpha:  2.519e-02  linmin: -2.065e-01  cgtest:  9.546e-01  t[s]:   1278.92
LCAOMinimize: 	Wrong curvature in test step, increasing alphaT to 7.555712e-02.
	FillingsUpdate:  mu: -0.160200000  nElectrons: 232.000000  magneticMoment: [ Abs: 0.00618  Tot: -0.00202 ]
LCAOMinimize: Iter:  10  G: -363.6930521995848835  |grad|_K:  1.229e-03  alpha: -5.229e-01  linmin: -2.102e-01  cgtest:  9.523e-01  t[s]:   1400.29
	FillingsUpdate:  mu: -0.160200000  nElectrons: 232.000000  magneticMoment: [ Abs: 0.00654  Tot: -0.00239 ]
LCAOMinimize: Iter:  11  G: -363.7295209687381998  |grad|_K:  1.227e-03  alpha:  2.551e-02  linmin: -2.139e-01  cgtest:  9.498e-01  t[s]:   1525.30
LCAOMinimize: 	Wrong curvature in test step, increasing alphaT to 7.651680e-02.
	FillingsUpdate:  mu: -0.160200000  nElectrons: 232.000000  magneticMoment: [ Abs: 0.00695  Tot: -0.00283 ]
LCAOMinimize: Iter:  12  G: -363.7659992224789676  |grad|_K:  1.224e-03  alpha: -4.879e-01  linmin: -2.172e-01  cgtest:  9.482e-01  t[s]:   1644.34
	FillingsUpdate:  mu: -0.160200000  nElectrons: 232.000000  magneticMoment: [ Abs: 0.00743  Tot: -0.00332 ]
LCAOMinimize: Iter:  13  G: -363.8025931684779266  |grad|_K:  1.219e-03  alpha:  2.567e-02  linmin: -2.196e-01  cgtest:  9.465e-01  t[s]:   1769.49
LCAOMinimize: 	Wrong curvature in test step, increasing alphaT to 7.699774e-02.
	FillingsUpdate:  mu: -0.160200000  nElectrons: 232.000000  magneticMoment: [ Abs: 0.00796  Tot: -0.00387 ]
LCAOMinimize: Iter:  14  G: -363.8389287855123939  |grad|_K:  1.213e-03  alpha: -4.915e-01  linmin: -2.196e-01  cgtest:  9.452e-01  t[s]:   1892.66
	FillingsUpdate:  mu: -0.160200000  nElectrons: 232.000000  magneticMoment: [ Abs: 0.00855  Tot: -0.00448 ]
LCAOMinimize: Iter:  15  G: -363.8746274333123552  |grad|_K:  1.204e-03  alpha:  2.551e-02  linmin: -2.136e-01  cgtest:  9.437e-01  t[s]:   2015.22
LCAOMinimize: 	Wrong curvature in test step, increasing alphaT to 7.654345e-02.
	FillingsUpdate:  mu: -0.160200000  nElectrons: 232.000000  magneticMoment: [ Abs: 0.00918  Tot: -0.00514 ]
LCAOMinimize: Iter:  16  G: -363.9099260171021228  |grad|_K:  1.199e-03  alpha: -4.389e-01  linmin: -1.933e-01  cgtest:  9.366e-01  t[s]:   2133.78
	FillingsUpdate:  mu: -0.160200000  nElectrons: 232.000000  magneticMoment: [ Abs: 0.00976  Tot: -0.00574 ]
LCAOMinimize: Iter:  17  G: -363.9467870851231055  |grad|_K:  1.247e-03  alpha:  2.556e-02  linmin: -1.572e-01  cgtest:  8.848e-01  t[s]:   2256.69
LCAOMinimize: 	Predicted alpha/alphaT>3.000000, increasing alphaT to 7.667166e-02.
	FillingsUpdate:  mu: -0.160200000  nElectrons: 232.000000  magneticMoment: [ Abs: 0.00939  Tot: -0.00535 ]
LCAOMinimize: Iter:  18  G: -363.9863979334004966  |grad|_K:  1.157e-03  alpha:  2.377e-02  linmin: -1.178e-01  cgtest:  7.941e-01  t[s]:   2413.76
LCAOMinimize: 	Predicted alpha/alphaT>3.000000, increasing alphaT to 7.131316e-02.
LCAOMinimize: 	Predicted alpha/alphaT>3.000000, increasing alphaT to 2.139395e-01.
	FillingsUpdate:  mu: -0.160200000  nElectrons: 232.000000  magneticMoment: [ Abs: 0.00768  Tot: -0.00285 ]
LCAOMinimize: Iter:  19  G: -364.1019484575530214  |grad|_K:  2.931e-03  alpha:  2.349e-01  linmin:  2.786e-02  cgtest:  8.214e-02  t[s]:   2600.49
LCAOMinimize: 	Bad step direction: g.d > 0.
LCAOMinimize: 	Undoing step.
LCAOMinimize: 	Step failed: resetting search direction.
	FillingsUpdate:  mu: -0.160200000  nElectrons: 232.000000  magneticMoment: [ Abs: 0.00768  Tot: -0.00285 ]
LCAOMinimize: Iter:  20  G: -364.1019484575530214  |grad|_K:  2.931e-03  alpha:  0.000e+00
	FillingsUpdate:  mu: -0.160200000  nElectrons: 232.000000  magneticMoment: [ Abs: 0.01560  Tot: -0.01165 ]
LCAOMinimize: Iter:  21  G: -364.1798788768712143  |grad|_K:  4.227e-04  alpha:  1.198e-01  linmin:  1.279e-02  cgtest: -3.658e+00  t[s]:   2817.95
	FillingsUpdate:  mu: -0.160200000  nElectrons: 232.000000  magneticMoment: [ Abs: 0.01749  Tot: -0.01363 ]
LCAOMinimize: Iter:  22  G: -364.1802420046552697  |grad|_K:  3.608e-04  alpha:  4.470e-02  linmin: -1.286e-03  cgtest:  9.836e-01  t[s]:   2943.13
LCAOMinimize: Encountered beta<0, resetting CG.
LCAOMinimize: 	Predicted alpha/alphaT>3.000000, increasing alphaT to 1.340853e-01.
LCAOMinimize: 	Predicted alpha/alphaT>3.000000, increasing alphaT to 4.022560e-01.
	FillingsUpdate:  mu: -0.160200000  nElectrons: 232.000000  magneticMoment: [ Abs: 0.01789  Tot: -0.01404 ]
LCAOMinimize: Iter:  23  G: -364.1810802518507444  |grad|_K:  3.494e-04  alpha:  7.438e-03  linmin: -1.123e-01  cgtest:  9.966e-01  t[s]:   3129.85
LCAOMinimize: Encountered beta<0, resetting CG.
LCAOMinimize: 	Predicted alpha/alphaT>3.000000, increasing alphaT to 2.231298e-02.
LCAOMinimize: 	Predicted alpha/alphaT>3.000000, increasing alphaT to 6.693894e-02.
LCAOMinimize: 	Predicted alpha/alphaT>3.000000, increasing alphaT to 2.008168e-01.
LCAOMinimize: 	Step increased G by 1.066422e+00, reducing alpha to 3.077725e-02.
	FillingsUpdate:  mu: -0.160200000  nElectrons: 232.000000  magneticMoment: [ Abs: 0.01946  Tot: -0.01566 ]
LCAOMinimize: Iter:  24  G: -364.1842127984498347  |grad|_K:  3.075e-04  alpha:  3.078e-02  linmin: -1.130e-01  cgtest:  9.704e-01  t[s]:   3412.34
LCAOMinimize: Encountered beta<0, resetting CG.
LCAOMinimize: 	Predicted alpha/alphaT>3.000000, increasing alphaT to 9.233174e-02.
LCAOMinimize: 	Wrong curvature in test step, increasing alphaT to 2.769952e-01.
	FillingsUpdate:  mu: -0.160200000  nElectrons: 232.000000  magneticMoment: [ Abs: 0.02313  Tot: -0.01942 ]
LCAOMinimize: Iter:  25  G: -364.1924058277074892  |grad|_K:  2.857e-04  alpha: -6.879e-01  linmin: -1.178e-01  cgtest:  5.631e-01  t[s]:   3567.70
	FillingsUpdate:  mu: -0.160200000  nElectrons: 232.000000  magneticMoment: [ Abs: 0.02369  Tot: -0.02000 ]
LCAOMinimize: Iter:  26  G: -364.1928695409602597  |grad|_K:  3.670e-04  alpha:  7.810e-03  linmin: -2.018e-01  cgtest:  7.364e-01  t[s]:   3692.91
LCAOMinimize: 	Wrong curvature in test step, increasing alphaT to 2.342938e-02.
	FillingsUpdate:  mu: -0.160200000  nElectrons: 232.000000  magneticMoment: [ Abs: 0.02428  Tot: -0.02061 ]
LCAOMinimize: Iter:  27  G: -364.1956974799315390  |grad|_K:  5.492e-04  alpha: -8.363e-03  linmin: -2.943e-01  cgtest:  5.475e-01  t[s]:   3814.56
LCAOMinimize: 	Step increased G by 3.176092e-01, reducing alpha to 3.654798e-03.
	FillingsUpdate:  mu: -0.160200000  nElectrons: 232.000000  magneticMoment: [ Abs: 0.02352  Tot: -0.01983 ]
LCAOMinimize: Iter:  28  G: -364.2008224262447698  |grad|_K:  3.683e-04  alpha:  3.655e-03  linmin: -2.892e-01  cgtest:  6.415e-01  t[s]:   4031.74
LCAOMinimize: 	Predicted alpha/alphaT>3.000000, increasing alphaT to 1.096440e-02.
	FillingsUpdate:  mu: -0.160200000  nElectrons: 232.000000  magneticMoment: [ Abs: 0.02335  Tot: -0.01962 ]
LCAOMinimize: Iter:  29  G: -364.2020077940977103  |grad|_K:  1.792e-04  alpha:  1.784e-02  linmin:  2.868e-02  cgtest: -9.153e-02  t[s]:   4189.32
	FillingsUpdate:  mu: -0.160200000  nElectrons: 232.000000  magneticMoment: [ Abs: 0.02842  Tot: -0.02466 ]
LCAOMinimize: Iter:  30  G: -364.2026070218921632  |grad|_K:  1.548e-04  alpha:  4.396e-02  linmin: -1.446e-02  cgtest:  8.989e-01  t[s]:   4315.16
LCAOMinimize: Encountered beta<0, resetting CG.
LCAOMinimize: None of the convergence criteria satisfied after 30 iterations.
----- createFluidSolver() ----- (Fluid-side solver setup)
   Initializing fluid molecule 'H2O'
     Initializing site 'O'
       Electron density: proportional to exp(-r/0.36935)*erfc((r-0.51523)/0.36823) with norm 6.826
       Charge density: gaussian nuclear width 0.478731 with net site charge 0.826
       Polarizability: cuspless exponential with width 0.32 and norm 3.73
       Hard sphere radius: 2.57003 bohrs
       Positions in reference frame:
         [ +0.000000 +0.000000 +0.000000 ]
     Initializing site 'H'
       Electron density: proportional to exp(-r/0.34641)*erfc((r-0)/0.390882) with norm 0.587
       Charge density: gaussian nuclear width 0.377945 with net site charge -0.413
       Polarizability: cuspless exponential with width 0.39 and norm 3.3
       Positions in reference frame:
         [ +0.000000 -1.441945 +1.122523 ]
         [ +0.000000 +1.441945 +1.122523 ]
     Net charge: 0   dipole magnitude: 0.927204
     Initializing spherical shell mfKernel with radius 2.61727 Bohr
     deltaS corrections:
       site 'O': -7.54299
       site 'H': -6.83917
   Initializing fluid molecule 'Na+'
     Initializing site 'Na'
       Electron density: proportional to exp(-r/0.19682)*erfc((r-0.71491)/0.41314) with norm 8.1383
       Charge density: gaussian nuclear width 0.365347 with net site charge -1
       Hard sphere radius: 1.86327 bohrs
       Positions in reference frame:
         [ +0.000000 +0.000000 +0.000000 ]
     Net charge: -1   dipole magnitude: 0
     Initializing gaussian mfKernel with width: 1.55004 Bohr
     deltaS corrections:
       site 'Na': -22.3555
   Initializing fluid molecule 'F-'
     Initializing site 'F'
       Electron density: proportional to exp(-r/0.38886)*erfc((r-0)/0.438782) with norm 8
       Charge density: gaussian nuclear width 0.374796 with net site charge 1
       Hard sphere radius: 2.39995 bohrs
       Positions in reference frame:
         [ +0.000000 +0.000000 +0.000000 ]
     Net charge: 1   dipole magnitude: 0
     Initializing gaussian mfKernel with width: 1.59012 Bohr
     deltaS corrections:
       site 'F': -9.04335

Correction to mu due to finite nuclear width = -0.0113812
   Cavity determined by nc: 0.00142 and sigma: 0.707107
   Nonlocal vdW cavity from gaussian model electron density with norm = 8 and sigma = 0.993594 bohr
   Charge asymmetry in cavity with sensitivity pCavity = 36.5 e-bohr/Eh
   Electrostatic cavity expanded by eta = 1.46 bohrs
   Weighted density cavitation model constrained by Nbulk: 0.0049383 bohr^-3, Pvap: 3.14029 kPa, Rvdw: 2.61727 bohr and sigmaBulk: 4.62e-05 Eh/bohr^2 at T: 298 K.
   Weighted density dispersion model using vdW pair potentials with single solvent site with sqrtC6eff: 0.77 SI.
WARNING: Vibrations: switching off translationSym and rotationSym since useConstraints is on.

---- Citations for features of the code used in this run ----

   Software package:
      R. Sundararaman, K. Letchworth-Weaver, K.A. Schwarz, D. Gunceler, Y. Ozhabes and T.A. Arias, 'JDFTx: software for joint density-functional theory', SoftwareX 6, 278 (2017)

   gga-PBE exchange-correlation functional:
      J.P. Perdew, K. Burke and M. Ernzerhof, Phys. Rev. Lett. 77, 3865 (1996)

   Pseudopotentials:
      KF Garrity, JW Bennett, KM Rabe and D Vanderbilt, Comput. Mater. Sci. 81, 446 (2014)

   DFT-D3 dispersion correction:
      S. Grimme, J. Antony, S. Ehrlich and H. Krieg, J. Chem. Phys. 132, 154104 (2010)

   DFT-D2 dispersion correction:
      S. Grimme, J. Comput. Chem. 27, 1787 (2006)

   Charge-asymmetric nonlocally-determined local-electric (CANDLE) solvation model:
      R. Sundararaman and W.A. Goddard III, J. Chem. Phys. 142, 064107 (2015)

   Total energy minimization with Auxiliary Hamiltonian:
      C. Freysoldt, S. Boeck, and J. Neugebauer, Phys. Rev. B 79, 241103(R) (2009)

   Grand-canonical (fixed-potential) DFT:
      R. Sundararaman, W. A. Goddard III and T. A. Arias, J. Chem. Phys. 146, 114104 (2017)

   Linear-tetrahedron sampling for density of states:
      G. Lehmann and M. Taut, Phys. status solidi (b) 54, 469 (1972)

This list may not be complete. Please suggest additional citations or
report any other bugs at https://github.com/shankar1729/jdftx/issues

Initialization completed successfully at t[s]:   4331.22

------ Vibrations::calculate() -------
WARNING: Vibrations module is experimental. Please report bugs!
Compare results with and without symmetries and report discrepancies.
Degrees of freedom: 18 total, 18 symmetry-independent.

Computing DFT-D3 correction:
# coordination-number C 3.301 3.322 3.335 3.333 3.313 3.290 3.326 3.579 3.331 3.314 3.304 3.333 3.306 3.301 3.326 3.617 3.265 3.300 3.319 3.335 3.328 3.303 3.302 3.327 3.336 3.319 3.300 3.268 3.570 3.326 3.302 3.307 3.325 3.303 3.314 3.330 3.618 3.327 3.289 3.313 3.333 3.335 3.322 3.301 3.000
# coordination-number N 3.178 3.178 3.176 3.183
# coordination-number Ti 7.480
# coordination-number O 2.000 1.051 1.983
# coordination-number H 1.002 0.993
# diagonal-C6 C 24.28 24.06 23.92 23.94 24.16 24.37 24.02 20.54 23.96 24.14 24.25 23.94 24.23 24.27 24.02 20.08 24.59 24.28 24.09 23.92 24.00 24.25 24.26 24.00 23.91 24.09 24.28 24.57 20.65 24.02 24.26 24.21 24.03 24.26 24.15 23.97 20.07 24.01 24.38 24.16 23.95 23.92 24.06 24.27 25.67
# diagonal-C6 N 15.60 15.60 15.60 15.60
# diagonal-C6 Ti 321.59
# diagonal-C6 O 10.41 12.77 10.41
# diagonal-C6 H 3.09 3.09
EvdW_6 =   -0.044040
EvdW_8 =   -0.033561
Fluid solver invoked on fresh (random / LCAO) wavefunctions
Running a vacuum solve first:

-------- Initial electronic minimization -----------
	FillingsUpdate:  mu: -0.201369387  nElectrons: 232.000000  magneticMoment: [ Abs: 0.02842  Tot: -0.02466 ]
ElecMinimize: Iter:   0  G: -364.203928563667773  |grad|_K:  1.449e-04  alpha:  1.000e+00
	FillingsUpdate:  mu: -0.156120659  nElectrons: 232.000000  magneticMoment: [ Abs: 0.10925  Tot: -0.10705 ]
	SubspaceRotationAdjust: set factor to 0.59
ElecMinimize: Iter:   1  G: -367.183130221733904  |grad|_K:  1.071e-04  alpha:  6.586e-01  linmin:  1.577e-05  t[s]:   4527.32
	FillingsUpdate:  mu: -0.075610946  nElectrons: 232.000000  magneticMoment: [ Abs: 0.00886  Tot: -0.00022 ]
	SubspaceRotationAdjust: set factor to 0.502
ElecMinimize: Iter:   2  G: -367.364689843439237  |grad|_K:  3.880e-05  alpha:  1.688e-01  linmin:  1.198e-05  t[s]:   4646.82
ElecMinimize: 	Predicted alpha/alphaT>3.000000, increasing alphaT to 5.064141e-01.
	FillingsUpdate:  mu: -0.100215283  nElectrons: 232.000000  magneticMoment: [ Abs: 0.00853  Tot: -0.00112 ]
	SubspaceRotationAdjust: set factor to 0.505
ElecMinimize: Iter:   3  G: -367.563719869374324  |grad|_K:  1.822e-05  alpha:  6.073e-01  linmin:  1.433e-05  t[s]:   4797.17
	FillingsUpdate:  mu: -0.123804117  nElectrons: 232.000000  magneticMoment: [ Abs: 0.00853  Tot: -0.00541 ]
	SubspaceRotationAdjust: set factor to 0.394
ElecMinimize: Iter:   4  G: -367.600374934475042  |grad|_K:  1.325e-05  alpha:  5.133e-01  linmin: -7.314e-05  t[s]:   4916.25
	FillingsUpdate:  mu: -0.107820885  nElectrons: 232.000000  magneticMoment: [ Abs: 0.00583  Tot: -0.00278 ]
	SubspaceRotationAdjust: set factor to 0.325
ElecMinimize: Iter:   5  G: -367.618019043031666  |grad|_K:  6.841e-06  alpha:  4.506e-01  linmin:  3.300e-05  t[s]:   5035.22
	FillingsUpdate:  mu: -0.105626335  nElectrons: 232.000000  magneticMoment: [ Abs: 0.00355  Tot: -0.00097 ]
	SubspaceRotationAdjust: set factor to 0.327
ElecMinimize: Iter:   6  G: -367.625645326546021  |grad|_K:  3.945e-06  alpha:  7.535e-01  linmin:  2.425e-06  t[s]:   5154.43
	FillingsUpdate:  mu: -0.107361081  nElectrons: 232.000000  magneticMoment: [ Abs: 0.00256  Tot: -0.00050 ]
	SubspaceRotationAdjust: set factor to 0.323
ElecMinimize: Iter:   7  G: -367.627735109958280  |grad|_K:  2.142e-06  alpha:  6.162e-01  linmin:  4.531e-06  t[s]:   5273.79
	FillingsUpdate:  mu: -0.107474855  nElectrons: 232.000000  magneticMoment: [ Abs: 0.00191  Tot: -0.00024 ]
	SubspaceRotationAdjust: set factor to 0.329
ElecMinimize: Iter:   8  G: -367.628446117969759  |grad|_K:  1.621e-06  alpha:  7.115e-01  linmin:  2.043e-05  t[s]:   5393.07
	FillingsUpdate:  mu: -0.107649833  nElectrons: 232.000000  magneticMoment: [ Abs: 0.00145  Tot: -0.00011 ]
	SubspaceRotationAdjust: set factor to 0.329
ElecMinimize: Iter:   9  G: -367.628755910814505  |grad|_K:  1.037e-06  alpha:  5.417e-01  linmin:  9.608e-06  t[s]:   5512.66
	FillingsUpdate:  mu: -0.107311389  nElectrons: 232.000000  magneticMoment: [ Abs: 0.00103  Tot: -0.00004 ]
	SubspaceRotationAdjust: set factor to 0.321
ElecMinimize: Iter:  10  G: -367.628935792771529  |grad|_K:  7.115e-07  alpha:  7.689e-01  linmin:  2.070e-05  t[s]:   5631.90
	FillingsUpdate:  mu: -0.107745691  nElectrons: 232.000000  magneticMoment: [ Abs: 0.00077  Tot: -0.00001 ]
	SubspaceRotationAdjust: set factor to 0.321
ElecMinimize: Iter:  11  G: -367.629007696018789  |grad|_K:  4.866e-07  alpha:  6.530e-01  linmin:  3.960e-06  t[s]:   5750.96
	FillingsUpdate:  mu: -0.107928208  nElectrons: 232.000000  magneticMoment: [ Abs: 0.00057  Tot: +0.00001 ]
	SubspaceRotationAdjust: set factor to 0.325
ElecMinimize: Iter:  12  G: -367.629041797556454  |grad|_K:  3.161e-07  alpha:  6.615e-01  linmin:  9.427e-07  t[s]:   5870.13
	FillingsUpdate:  mu: -0.107766221  nElectrons: 232.000000  magneticMoment: [ Abs: 0.00043  Tot: +0.00001 ]
	SubspaceRotationAdjust: set factor to 0.303
ElecMinimize: Iter:  13  G: -367.629057581612130  |grad|_K:  2.117e-07  alpha:  7.250e-01  linmin:  3.596e-06  t[s]:   5989.29
	FillingsUpdate:  mu: -0.107864735  nElectrons: 232.000000  magneticMoment: [ Abs: 0.00032  Tot: +0.00001 ]
	SubspaceRotationAdjust: set factor to 0.294
ElecMinimize: Iter:  14  G: -367.629064391249130  |grad|_K:  1.579e-07  alpha:  6.981e-01  linmin:  1.537e-07  t[s]:   6109.00
	FillingsUpdate:  mu: -0.107853169  nElectrons: 232.000000  magneticMoment: [ Abs: 0.00025  Tot: +0.00001 ]
	SubspaceRotationAdjust: set factor to 0.294
ElecMinimize: Iter:  15  G: -367.629067559284692  |grad|_K:  1.050e-07  alpha:  5.831e-01  linmin:  1.321e-06  t[s]:   6228.49
	FillingsUpdate:  mu: -0.107843243  nElectrons: 232.000000  magneticMoment: [ Abs: 0.00018  Tot: +0.00001 ]
	SubspaceRotationAdjust: set factor to 0.297
ElecMinimize: Iter:  16  G: -367.629069443099013  |grad|_K:  7.078e-08  alpha:  7.840e-01  linmin:  2.258e-06  t[s]:   6347.55
	FillingsUpdate:  mu: -0.107840791  nElectrons: 232.000000  magneticMoment: [ Abs: 0.00013  Tot: +0.00000 ]
	SubspaceRotationAdjust: set factor to 0.3
ElecMinimize: Iter:  17  G: -367.629070285140642  |grad|_K:  5.165e-08  alpha:  7.716e-01  linmin:  1.649e-06  t[s]:   6467.31
	FillingsUpdate:  mu: -0.107835736  nElectrons: 232.000000  magneticMoment: [ Abs: 0.00010  Tot: +0.00000 ]
	SubspaceRotationAdjust: set factor to 0.298
ElecMinimize: Iter:  18  G: -367.629070654368547  |grad|_K:  3.607e-08  alpha:  6.351e-01  linmin:  1.543e-06  t[s]:   6586.77
	FillingsUpdate:  mu: -0.107846343  nElectrons: 232.000000  magneticMoment: [ Abs: 0.00008  Tot: -0.00000 ]
	SubspaceRotationAdjust: set factor to 0.283
ElecMinimize: Iter:  19  G: -367.629070832384741  |grad|_K:  2.557e-08  alpha:  6.283e-01  linmin:  4.699e-07  t[s]:   6705.99
	FillingsUpdate:  mu: -0.107838364  nElectrons: 232.000000  magneticMoment: [ Abs: 0.00006  Tot: -0.00000 ]
	SubspaceRotationAdjust: set factor to 0.284
ElecMinimize: Iter:  20  G: -367.629070929984039  |grad|_K:  1.719e-08  alpha:  6.853e-01  linmin: -9.771e-07  t[s]:   6825.40
	FillingsUpdate:  mu: -0.107839189  nElectrons: 232.000000  magneticMoment: [ Abs: 0.00004  Tot: -0.00000 ]
	SubspaceRotationAdjust: set factor to 0.289
ElecMinimize: Iter:  21  G: -367.629070980192068  |grad|_K:  1.243e-08  alpha:  7.805e-01  linmin:  2.746e-06  t[s]:   6944.81
ElecMinimize: Converged (|Delta G|<1.000000e-07 for 2 iters).
Setting wave functions to eigenvectors of Hamiltonian
Converging empty states (this may take a while): |deigs|: 1.017e-02
Vacuum energy after initial minimize, F = -367.629070980192068

Shifting auxilliary hamiltonian by -0.052361 to set nElectrons=232.000000

-------- Electronic minimization -----------
	Linear fluid (dielectric constant: 78.4, screening length: 8.12261 Bohr) occupying 0.709863 of unit cell:	Completed after 24 iterations at t[s]:   7672.12
	FillingsUpdate:  mu: -0.160200000  nElectrons: 232.000000  magneticMoment: [ Abs: 0.00002  Tot: -0.00000 ]
ElecMinimize: Iter:   0  G: -367.636038611891479  |grad|_K:  4.649e-06  alpha:  1.000e+00
	Linear fluid (dielectric constant: 78.4, screening length: 8.12261 Bohr) occupying 0.711341 of unit cell:	Completed after 14 iterations at t[s]:   7784.35
	Linear fluid (dielectric constant: 78.4, screening length: 8.12261 Bohr) occupying 0.711382 of unit cell:	Completed after 4 iterations at t[s]:   7824.14
	FillingsUpdate:  mu: -0.160200000  nElectrons: 232.002789  magneticMoment: [ Abs: 0.00002  Tot: -0.00000 ]
	SubspaceRotationAdjust: set factor to 0.372
ElecMinimize: Iter:   1  G: -367.640898319788732  |grad|_K:  2.832e-06  alpha:  1.026e+00  linmin: -1.016e-03  t[s]:   7875.75
	Linear fluid (dielectric constant: 78.4, screening length: 8.12261 Bohr) occupying 0.712275 of unit cell:	Completed after 11 iterations at t[s]:   7926.39
	Linear fluid (dielectric constant: 78.4, screening length: 8.12261 Bohr) occupying 0.712073 of unit cell:	Completed after 8 iterations at t[s]:   7968.56
	FillingsUpdate:  mu: -0.160200000  nElectrons: 232.004897  magneticMoment: [ Abs: 0.00001  Tot: +0.00000 ]
	SubspaceRotationAdjust: set factor to 0.399
ElecMinimize: Iter:   2  G: -367.642457635378776  |grad|_K:  2.337e-06  alpha:  8.011e-01  linmin:  1.595e-05  t[s]:   8020.31
	Linear fluid (dielectric constant: 78.4, screening length: 8.12261 Bohr) occupying 0.712730 of unit cell:	Completed after 11 iterations at t[s]:   8070.83
	Linear fluid (dielectric constant: 78.4, screening length: 8.12261 Bohr) occupying 0.712538 of unit cell:	Completed after 7 iterations at t[s]:   8112.60
	FillingsUpdate:  mu: -0.160200000  nElectrons: 232.007153  magneticMoment: [ Abs: 0.00001  Tot: +0.00000 ]
	SubspaceRotationAdjust: set factor to 0.434
ElecMinimize: Iter:   3  G: -367.643128822512153  |grad|_K:  1.387e-06  alpha:  5.709e-01  linmin: -5.414e-06  t[s]:   8164.23
	Linear fluid (dielectric constant: 78.4, screening length: 8.12261 Bohr) occupying 0.712729 of unit cell:	Completed after 7 iterations at t[s]:   8212.48
	Linear fluid (dielectric constant: 78.4, screening length: 8.12261 Bohr) occupying 0.712721 of unit cell:	Completed after 2 iterations at t[s]:   8250.82
	FillingsUpdate:  mu: -0.160200000  nElectrons: 232.011501  magneticMoment: [ Abs: 0.00001  Tot: +0.00000 ]
	SubspaceRotationAdjust: set factor to 0.46
ElecMinimize: Iter:   4  G: -367.643358661333878  |grad|_K:  7.513e-07  alpha:  5.469e-01  linmin:  1.580e-05  t[s]:   8302.67
	Linear fluid (dielectric constant: 78.4, screening length: 8.12261 Bohr) occupying 0.712732 of unit cell:	Completed after 4 iterations at t[s]:   8348.70
	Linear fluid (dielectric constant: 78.4, screening length: 8.12261 Bohr) occupying 0.712737 of unit cell:	Completed after 3 iterations at t[s]:   8387.33
	FillingsUpdate:  mu: -0.160200000  nElectrons: 232.017708  magneticMoment: [ Abs: 0.00001  Tot: +0.00000 ]
	SubspaceRotationAdjust: set factor to 0.496
ElecMinimize: Iter:   5  G: -367.643450888427424  |grad|_K:  3.961e-07  alpha:  7.533e-01  linmin:  2.437e-06  t[s]:   8438.94
	Linear fluid (dielectric constant: 78.4, screening length: 8.12261 Bohr) occupying 0.712699 of unit cell:	Completed after 7 iterations at t[s]:   8486.88
	Linear fluid (dielectric constant: 78.4, screening length: 8.12261 Bohr) occupying 0.712699 of unit cell:	Completed after 0 iterations at t[s]:   8523.15
	FillingsUpdate:  mu: -0.160200000  nElectrons: 232.023087  magneticMoment: [ Abs: 0.00000  Tot: +0.00000 ]
	SubspaceRotationAdjust: set factor to 0.442
ElecMinimize: Iter:   6  G: -367.643476456769804  |grad|_K:  2.622e-07  alpha:  7.481e-01  linmin:  3.066e-05  t[s]:   8574.56
	Linear fluid (dielectric constant: 78.4, screening length: 8.12261 Bohr) occupying 0.712659 of unit cell:	Completed after 4 iterations at t[s]:   8620.27
	Linear fluid (dielectric constant: 78.4, screening length: 8.12261 Bohr) occupying 0.712675 of unit cell:	Completed after 2 iterations at t[s]:   8658.39
	FillingsUpdate:  mu: -0.160200000  nElectrons: 232.024195  magneticMoment: [ Abs: 0.00000  Tot: +0.00000 ]
	SubspaceRotationAdjust: set factor to 0.361
ElecMinimize: Iter:   7  G: -367.643483142685795  |grad|_K:  1.652e-07  alpha:  4.516e-01  linmin:  2.268e-05  t[s]:   8709.73
	Linear fluid (dielectric constant: 78.4, screening length: 8.12261 Bohr) occupying 0.712657 of unit cell:	Completed after 3 iterations at t[s]:   8755.18
	Linear fluid (dielectric constant: 78.4, screening length: 8.12261 Bohr) occupying 0.712651 of unit cell:	Completed after 0 iterations at t[s]:   8791.42
	FillingsUpdate:  mu: -0.160200000  nElectrons: 232.024898  magneticMoment: [ Abs: 0.00000  Tot: +0.00000 ]
	SubspaceRotationAdjust: set factor to 0.399
ElecMinimize: Iter:   8  G: -367.643486850534373  |grad|_K:  9.007e-08  alpha:  6.132e-01  linmin: -8.151e-04  t[s]:   8843.03
	Linear fluid (dielectric constant: 78.4, screening length: 8.12261 Bohr) occupying 0.712638 of unit cell:	Completed after 2 iterations at t[s]:   8887.84
	Linear fluid (dielectric constant: 78.4, screening length: 8.12261 Bohr) occupying 0.712637 of unit cell:	Completed after 0 iterations at t[s]:   8923.88
	FillingsUpdate:  mu: -0.160200000  nElectrons: 232.024855  magneticMoment: [ Abs: 0.00000  Tot: +0.00000 ]
	SubspaceRotationAdjust: set factor to 0.406
ElecMinimize: Iter:   9  G: -367.643488131634285  |grad|_K:  7.221e-08  alpha:  6.699e-01  linmin: -7.791e-04  t[s]:   8975.35
	Linear fluid (dielectric constant: 78.4, screening length: 8.12261 Bohr) occupying 0.712624 of unit cell:	Completed after 2 iterations at t[s]:   9019.82
	Linear fluid (dielectric constant: 78.4, screening length: 8.12261 Bohr) occupying 0.712628 of unit cell:	Completed after 1 iterations at t[s]:   9056.99
	FillingsUpdate:  mu: -0.160200000  nElectrons: 232.024521  magneticMoment: [ Abs: 0.00000  Tot: +0.00000 ]
	SubspaceRotationAdjust: set factor to 0.387
ElecMinimize: Iter:  10  G: -367.643488717942375  |grad|_K:  5.833e-08  alpha:  4.671e-01  linmin:  2.928e-04  t[s]:   9108.25
	Linear fluid (dielectric constant: 78.4, screening length: 8.12261 Bohr) occupying 0.712622 of unit cell:	Completed after 2 iterations at t[s]:   9152.68
	Linear fluid (dielectric constant: 78.4, screening length: 8.12261 Bohr) occupying 0.712622 of unit cell:	Completed after 0 iterations at t[s]:   9188.96
	FillingsUpdate:  mu: -0.160200000  nElectrons: 232.024299  magneticMoment: [ Abs: 0.00000  Tot: +0.00000 ]
	SubspaceRotationAdjust: set factor to 0.401
ElecMinimize: Iter:  11  G: -367.643489024130417  |grad|_K:  3.628e-08  alpha:  4.466e-01  linmin: -2.002e-04  t[s]:   9240.36
	Linear fluid (dielectric constant: 78.4, screening length: 8.12261 Bohr) occupying 0.712620 of unit cell:	Completed after 0 iterations at t[s]:   9282.97
	Linear fluid (dielectric constant: 78.4, screening length: 8.12261 Bohr) occupying 0.712620 of unit cell:	Completed after 0 iterations at t[s]:   9319.31
	FillingsUpdate:  mu: -0.160200000  nElectrons: 232.024165  magneticMoment: [ Abs: 0.00000  Tot: +0.00000 ]
	SubspaceRotationAdjust: set factor to 0.428
ElecMinimize: Iter:  12  G: -367.643489203978447  |grad|_K:  2.728e-08  alpha:  5.981e-01  linmin:  9.070e-07  t[s]:   9370.79
	Linear fluid (dielectric constant: 78.4, screening length: 8.12261 Bohr) occupying 0.712619 of unit cell:	Completed after 2 iterations at t[s]:   9415.40
	Linear fluid (dielectric constant: 78.4, screening length: 8.12261 Bohr) occupying 0.712620 of unit cell:	Completed after 0 iterations at t[s]:   9451.63
	FillingsUpdate:  mu: -0.160200000  nElectrons: 232.024123  magneticMoment: [ Abs: 0.00000  Tot: +0.00000 ]
	SubspaceRotationAdjust: set factor to 0.417
ElecMinimize: Iter:  13  G: -367.643489239652695  |grad|_K:  2.609e-08  alpha:  3.317e-01  linmin: -1.858e-05  t[s]:   9502.87
	Linear fluid (dielectric constant: 78.4, screening length: 8.12261 Bohr) occupying 0.712620 of unit cell:	Completed after 0 iterations at t[s]:   9545.53
	Linear fluid (dielectric constant: 78.4, screening length: 8.12261 Bohr) occupying 0.712621 of unit cell:	Completed after 0 iterations at t[s]:   9581.63
	FillingsUpdate:  mu: -0.160200000  nElectrons: 232.024089  magneticMoment: [ Abs: 0.00000  Tot: +0.00000 ]
	SubspaceRotationAdjust: set factor to 0.465
ElecMinimize: Iter:  14  G: -367.643489295585994  |grad|_K:  2.363e-08  alpha:  3.733e-01  linmin:  6.544e-06  t[s]:   9633.26
ElecMinimize: Converged (|Delta G|<1.000000e-07 for 2 iters).
Setting wave functions to eigenvectors of Hamiltonian
Converging empty states (this may take a while): |deigs|: 8.806e-04
Single-point solvation energy estimate, DeltaG = -0.014418315393925

Computing DFT-D3 correction:
# coordination-number C 3.301 3.322 3.335 3.333 3.313 3.290 3.326 3.579 3.331 3.314 3.304 3.333 3.306 3.301 3.326 3.617 3.265 3.300 3.319 3.335 3.328 3.303 3.302 3.327 3.336 3.319 3.300 3.268 3.570 3.326 3.302 3.307 3.325 3.303 3.314 3.330 3.618 3.327 3.289 3.313 3.333 3.335 3.322 3.301 3.000
# coordination-number N 3.178 3.178 3.176 3.183
# coordination-number Ti 7.480
# coordination-number O 2.000 1.051 1.983
# coordination-number H 1.002 0.993
# diagonal-C6 C 24.28 24.06 23.92 23.94 24.16 24.37 24.02 20.54 23.96 24.14 24.25 23.94 24.23 24.27 24.02 20.08 24.59 24.28 24.09 23.92 24.00 24.25 24.26 24.00 23.91 24.09 24.28 24.57 20.65 24.02 24.26 24.21 24.03 24.26 24.15 23.97 20.07 24.01 24.38 24.16 23.95 23.92 24.06 24.27 25.67
# diagonal-C6 N 15.60 15.60 15.60 15.60
# diagonal-C6 Ti 321.59
# diagonal-C6 O 10.41 12.77 10.41
# diagonal-C6 H 3.09 3.09
EvdW_6 =   -0.044040
EvdW_8 =   -0.033561
Completed 1 of 19 configurations.

Computing DFT-D3 correction:
# coordination-number C 3.301 3.322 3.335 3.333 3.313 3.290 3.326 3.579 3.331 3.314 3.304 3.333 3.306 3.301 3.326 3.617 3.265 3.300 3.319 3.335 3.328 3.303 3.302 3.327 3.336 3.319 3.300 3.268 3.570 3.326 3.302 3.307 3.325 3.303 3.314 3.330 3.618 3.327 3.289 3.313 3.333 3.335 3.322 3.301 3.000
# coordination-number N 3.178 3.178 3.176 3.183
# coordination-number Ti 7.480
# coordination-number O 2.000 1.051 1.983
# coordination-number H 1.002 0.993
# diagonal-C6 C 24.28 24.06 23.92 23.94 24.16 24.37 24.02 20.54 23.96 24.14 24.25 23.94 24.23 24.27 24.02 20.08 24.59 24.28 24.09 23.92 24.00 24.25 24.26 24.00 23.91 24.09 24.28 24.57 20.65 24.02 24.26 24.21 24.03 24.26 24.15 23.97 20.07 24.01 24.38 24.16 23.95 23.92 24.06 24.27 25.67
# diagonal-C6 N 15.60 15.60 15.60 15.60
# diagonal-C6 Ti 321.59
# diagonal-C6 O 10.41 12.77 10.41
# diagonal-C6 H 3.09 3.09
EvdW_6 =   -0.044039
EvdW_8 =   -0.033561
Shifting auxilliary hamiltonian by 0.000004 to set nElectrons=232.024089

-------- Electronic minimization -----------
	Linear fluid (dielectric constant: 78.4, screening length: 8.12261 Bohr) occupying 0.712623 of unit cell:	Completed after 5 iterations at t[s]:  10243.90
	FillingsUpdate:  mu: -0.160200000  nElectrons: 232.024089  magneticMoment: [ Abs: 0.00000  Tot: +0.00000 ]
ElecMinimize: Iter:   0  G: -367.643460505173778  |grad|_K:  3.535e-07  alpha:  1.000e+00
	Linear fluid (dielectric constant: 78.4, screening length: 8.12261 Bohr) occupying 0.712621 of unit cell:	Completed after 4 iterations at t[s]:  10348.03
	Linear fluid (dielectric constant: 78.4, screening length: 8.12261 Bohr) occupying 0.712622 of unit cell:	Completed after 2 iterations at t[s]:  10386.19
	FillingsUpdate:  mu: -0.160200000  nElectrons: 232.024255  magneticMoment: [ Abs: 0.00000  Tot: +0.00000 ]
	SubspaceRotationAdjust: set factor to 0.579
ElecMinimize: Iter:   1  G: -367.643480527261772  |grad|_K:  1.632e-07  alpha:  7.341e-01  linmin:  3.867e-05  t[s]:  10437.96
	Linear fluid (dielectric constant: 78.4, screening length: 8.12261 Bohr) occupying 0.712621 of unit cell:	Completed after 3 iterations at t[s]:  10483.84
	Linear fluid (dielectric constant: 78.4, screening length: 8.12261 Bohr) occupying 0.712621 of unit cell:	Completed after 0 iterations at t[s]:  10520.79
	FillingsUpdate:  mu: -0.160200000  nElectrons: 232.024142  magneticMoment: [ Abs: 0.00000  Tot: +0.00000 ]
	SubspaceRotationAdjust: set factor to 0.619
ElecMinimize: Iter:   2  G: -367.643484615258387  |grad|_K:  1.127e-07  alpha:  7.072e-01  linmin:  2.992e-05  t[s]:  10572.35
	Linear fluid (dielectric constant: 78.4, screening length: 8.12261 Bohr) occupying 0.712621 of unit cell:	Completed after 2 iterations at t[s]:  10616.98
	Linear fluid (dielectric constant: 78.4, screening length: 8.12261 Bohr) occupying 0.712621 of unit cell:	Completed after 2 iterations at t[s]:  10654.99
	FillingsUpdate:  mu: -0.160200000  nElectrons: 232.024362  magneticMoment: [ Abs: 0.00000  Tot: +0.00000 ]
	SubspaceRotationAdjust: set factor to 0.52
ElecMinimize: Iter:   3  G: -367.643486042220786  |grad|_K:  7.056e-08  alpha:  5.240e-01  linmin:  4.787e-05  t[s]:  10706.74
	Linear fluid (dielectric constant: 78.4, screening length: 8.12261 Bohr) occupying 0.712620 of unit cell:	Completed after 1 iterations at t[s]:  10751.32
	Linear fluid (dielectric constant: 78.4, screening length: 8.12261 Bohr) occupying 0.712620 of unit cell:	Completed after 2 iterations at t[s]:  10789.38
	FillingsUpdate:  mu: -0.160200000  nElectrons: 232.024223  magneticMoment: [ Abs: 0.00000  Tot: +0.00000 ]
	SubspaceRotationAdjust: set factor to 0.332
ElecMinimize: Iter:   4  G: -367.643486374513600  |grad|_K:  3.368e-08  alpha:  3.192e-01  linmin:  1.541e-04  t[s]:  10840.89
	Linear fluid (dielectric constant: 78.4, screening length: 8.12261 Bohr) occupying 0.712620 of unit cell:	Completed after 0 iterations at t[s]:  10883.77
	Linear fluid (dielectric constant: 78.4, screening length: 8.12261 Bohr) occupying 0.712620 of unit cell:	Completed after 1 iterations at t[s]:  10921.22
	FillingsUpdate:  mu: -0.160200000  nElectrons: 232.024263  magneticMoment: [ Abs: 0.00000  Tot: +0.00000 ]
	SubspaceRotationAdjust: set factor to 0.273
ElecMinimize: Iter:   5  G: -367.643486476969997  |grad|_K:  2.062e-08  alpha:  7.091e-01  linmin:  8.101e-04  t[s]:  10972.81
	Linear fluid (dielectric constant: 78.4, screening length: 8.12261 Bohr) occupying 0.712620 of unit cell:	Completed after 0 iterations at t[s]:  11016.34
	Linear fluid (dielectric constant: 78.4, screening length: 8.12261 Bohr) occupying 0.712620 of unit cell:	Completed after 0 iterations at t[s]:  11052.52
	FillingsUpdate:  mu: -0.160200000  nElectrons: 232.024228  magneticMoment: [ Abs: 0.00000  Tot: +0.00000 ]
	SubspaceRotationAdjust: set factor to 0.34
ElecMinimize: Iter:   6  G: -367.643486514906044  |grad|_K:  1.150e-08  alpha:  5.981e-01  linmin: -4.000e-04  t[s]:  11103.93
	Linear fluid (dielectric constant: 78.4, screening length: 8.12261 Bohr) occupying 0.712620 of unit cell:	Completed after 0 iterations at t[s]:  11146.81
	Linear fluid (dielectric constant: 78.4, screening length: 8.12261 Bohr) occupying 0.712620 of unit cell:	Completed after 0 iterations at t[s]:  11183.70
	FillingsUpdate:  mu: -0.160200000  nElectrons: 232.024185  magneticMoment: [ Abs: 0.00000  Tot: +0.00000 ]
	SubspaceRotationAdjust: set factor to 0.438
ElecMinimize: Iter:   7  G: -367.643486535636214  |grad|_K:  8.633e-09  alpha:  6.704e-01  linmin:  2.618e-05  t[s]:  11234.84
ElecMinimize: Converged (|Delta G|<1.000000e-07 for 2 iters).
Setting wave functions to eigenvectors of Hamiltonian
Converging empty states (this may take a while): |deigs|: 6.828e-08

Computing DFT-D3 correction:
# coordination-number C 3.301 3.322 3.335 3.333 3.313 3.290 3.326 3.579 3.331 3.314 3.304 3.333 3.306 3.301 3.326 3.617 3.265 3.300 3.319 3.335 3.328 3.303 3.302 3.327 3.336 3.319 3.300 3.268 3.570 3.326 3.302 3.307 3.325 3.303 3.314 3.330 3.618 3.327 3.289 3.313 3.333 3.335 3.322 3.301 3.000
# coordination-number N 3.178 3.178 3.176 3.183
# coordination-number Ti 7.480
# coordination-number O 2.000 1.051 1.983
# coordination-number H 1.002 0.993
# diagonal-C6 C 24.28 24.06 23.92 23.94 24.16 24.37 24.02 20.54 23.96 24.14 24.25 23.94 24.23 24.27 24.02 20.08 24.59 24.28 24.09 23.92 24.00 24.25 24.26 24.00 23.91 24.09 24.28 24.57 20.65 24.02 24.26 24.21 24.03 24.26 24.15 23.97 20.07 24.01 24.38 24.16 23.95 23.92 24.06 24.27 25.67
# diagonal-C6 N 15.60 15.60 15.60 15.60
# diagonal-C6 Ti 321.59
# diagonal-C6 O 10.41 12.77 10.41
# diagonal-C6 H 3.09 3.09
EvdW_6 =   -0.044039
EvdW_8 =   -0.033561
Completed 2 of 19 configurations.

Computing DFT-D3 correction:
# coordination-number C 3.301 3.322 3.335 3.333 3.313 3.290 3.326 3.579 3.331 3.314 3.304 3.333 3.306 3.301 3.326 3.617 3.265 3.300 3.319 3.335 3.328 3.303 3.302 3.327 3.336 3.319 3.300 3.268 3.570 3.326 3.302 3.307 3.325 3.303 3.314 3.330 3.618 3.327 3.289 3.313 3.333 3.335 3.322 3.301 3.001
# coordination-number N 3.178 3.178 3.176 3.183
# coordination-number Ti 7.480
# coordination-number O 2.000 1.051 1.983
# coordination-number H 1.002 0.993
# diagonal-C6 C 24.28 24.06 23.92 23.94 24.16 24.37 24.02 20.54 23.96 24.14 24.25 23.94 24.23 24.27 24.02 20.08 24.59 24.28 24.09 23.92 24.00 24.25 24.26 24.00 23.91 24.09 24.28 24.57 20.65 24.02 24.26 24.21 24.03 24.26 24.15 23.97 20.07 24.01 24.38 24.16 23.95 23.92 24.06 24.27 25.67
# diagonal-C6 N 15.60 15.60 15.60 15.60
# diagonal-C6 Ti 321.59
# diagonal-C6 O 10.41 12.77 10.41
# diagonal-C6 H 3.09 3.09
EvdW_6 =   -0.044040
EvdW_8 =   -0.033561
Shifting auxilliary hamiltonian by -0.000006 to set nElectrons=232.024185

-------- Electronic minimization -----------
	Linear fluid (dielectric constant: 78.4, screening length: 8.12261 Bohr) occupying 0.712630 of unit cell:	Completed after 7 iterations at t[s]:  11434.49
	FillingsUpdate:  mu: -0.160200000  nElectrons: 232.024185  magneticMoment: [ Abs: 0.00000  Tot: +0.00000 ]
ElecMinimize: Iter:   0  G: -367.643394356859574  |grad|_K:  6.474e-07  alpha:  1.000e+00
	Linear fluid (dielectric constant: 78.4, screening length: 8.12261 Bohr) occupying 0.712634 of unit cell:	Completed after 6 iterations at t[s]:  11539.68
	Linear fluid (dielectric constant: 78.4, screening length: 8.12261 Bohr) occupying 0.712633 of unit cell:	Completed after 3 iterations at t[s]:  11578.72
	FillingsUpdate:  mu: -0.160200000  nElectrons: 232.024364  magneticMoment: [ Abs: 0.00000  Tot: +0.00000 ]
	SubspaceRotationAdjust: set factor to 0.455
ElecMinimize: Iter:   1  G: -367.643451350676230  |grad|_K:  3.058e-07  alpha:  6.239e-01  linmin:  1.365e-05  t[s]:  11629.81
	Linear fluid (dielectric constant: 78.4, screening length: 8.12261 Bohr) occupying 0.712638 of unit cell:	Completed after 3 iterations at t[s]:  11674.92
	Linear fluid (dielectric constant: 78.4, screening length: 8.12261 Bohr) occupying 0.712638 of unit cell:	Completed after 0 iterations at t[s]:  11711.18
	FillingsUpdate:  mu: -0.160200000  nElectrons: 232.024213  magneticMoment: [ Abs: 0.00000  Tot: +0.00000 ]
	SubspaceRotationAdjust: set factor to 0.527
ElecMinimize: Iter:   2  G: -367.643464751775809  |grad|_K:  1.713e-07  alpha:  6.573e-01  linmin: -2.916e-04  t[s]:  11762.52
	Linear fluid (dielectric constant: 78.4, screening length: 8.12261 Bohr) occupying 0.712639 of unit cell:	Completed after 2 iterations at t[s]:  11807.83
	Linear fluid (dielectric constant: 78.4, screening length: 8.12261 Bohr) occupying 0.712640 of unit cell:	Completed after 1 iterations at t[s]:  11845.86
	FillingsUpdate:  mu: -0.160200000  nElectrons: 232.024346  magneticMoment: [ Abs: 0.00000  Tot: +0.00000 ]
	SubspaceRotationAdjust: set factor to 0.61
ElecMinimize: Iter:   3  G: -367.643470217195954  |grad|_K:  9.040e-08  alpha:  8.389e-01  linmin: -6.330e-05  t[s]:  11897.41
	Linear fluid (dielectric constant: 78.4, screening length: 8.12261 Bohr) occupying 0.712641 of unit cell:	Completed after 3 iterations at t[s]:  11942.94
	Linear fluid (dielectric constant: 78.4, screening length: 8.12261 Bohr) occupying 0.712640 of unit cell:	Completed after 1 iterations at t[s]:  11980.57
	FillingsUpdate:  mu: -0.160200000  nElectrons: 232.024265  magneticMoment: [ Abs: 0.00000  Tot: +0.00000 ]
	SubspaceRotationAdjust: set factor to 0.547
ElecMinimize: Iter:   4  G: -367.643471061265302  |grad|_K:  6.210e-08  alpha:  4.684e-01  linmin:  5.454e-05  t[s]:  12032.34
	Linear fluid (dielectric constant: 78.4, screening length: 8.12261 Bohr) occupying 0.712642 of unit cell:	Completed after 2 iterations at t[s]:  12077.28
	Linear fluid (dielectric constant: 78.4, screening length: 8.12261 Bohr) occupying 0.712642 of unit cell:	Completed after 0 iterations at t[s]:  12114.06
	FillingsUpdate:  mu: -0.160200000  nElectrons: 232.024473  magneticMoment: [ Abs: 0.00000  Tot: +0.00000 ]
	SubspaceRotationAdjust: set factor to 0.374
ElecMinimize: Iter:   5  G: -367.643471418613728  |grad|_K:  3.084e-08  alpha:  4.294e-01  linmin:  3.814e-05  t[s]:  12165.90
	Linear fluid (dielectric constant: 78.4, screening length: 8.12261 Bohr) occupying 0.712642 of unit cell:	Completed after 0 iterations at t[s]:  12208.85
	Linear fluid (dielectric constant: 78.4, screening length: 8.12261 Bohr) occupying 0.712643 of unit cell:	Completed after 2 iterations at t[s]:  12247.19
	FillingsUpdate:  mu: -0.160200000  nElectrons: 232.024498  magneticMoment: [ Abs: 0.00000  Tot: +0.00000 ]
	SubspaceRotationAdjust: set factor to 0.289
ElecMinimize: Iter:   6  G: -367.643471519892330  |grad|_K:  2.997e-08  alpha:  8.869e-01  linmin:  2.324e-03  t[s]:  12298.82
	Linear fluid (dielectric constant: 78.4, screening length: 8.12261 Bohr) occupying 0.712644 of unit cell:	Completed after 0 iterations at t[s]:  12341.97
	Linear fluid (dielectric constant: 78.4, screening length: 8.12261 Bohr) occupying 0.712644 of unit cell:	Completed after 0 iterations at t[s]:  12378.87
	FillingsUpdate:  mu: -0.160200000  nElectrons: 232.024595  magneticMoment: [ Abs: 0.00000  Tot: -0.00000 ]
	SubspaceRotationAdjust: set factor to 0.416
ElecMinimize: Iter:   7  G: -367.643471572455724  |grad|_K:  2.249e-08  alpha:  4.548e-01  linmin: -1.703e-07  t[s]:  12430.82
	Linear fluid (dielectric constant: 78.4, screening length: 8.12261 Bohr) occupying 0.712644 of unit cell:	Completed after 2 iterations at t[s]:  12475.79
	Linear fluid (dielectric constant: 78.4, screening length: 8.12261 Bohr) occupying 0.712644 of unit cell:	Completed after 0 iterations at t[s]:  12511.98
	FillingsUpdate:  mu: -0.160200000  nElectrons: 232.024642  magneticMoment: [ Abs: 0.00000  Tot: -0.00000 ]
	SubspaceRotationAdjust: set factor to 0.363
ElecMinimize: Iter:   8  G: -367.643471588060606  |grad|_K:  2.239e-08  alpha:  1.947e-01  linmin:  2.456e-03  t[s]:  12564.52
ElecMinimize: Converged (|Delta G|<1.000000e-07 for 2 iters).
Setting wave functions to eigenvectors of Hamiltonian
Converging empty states (this may take a while): |deigs|: 1.504e-08

Computing DFT-D3 correction:
# coordination-number C 3.301 3.322 3.335 3.333 3.313 3.290 3.326 3.579 3.331 3.314 3.304 3.333 3.306 3.301 3.326 3.617 3.265 3.300 3.319 3.335 3.328 3.303 3.302 3.327 3.336 3.319 3.300 3.268 3.570 3.326 3.302 3.307 3.325 3.303 3.314 3.330 3.618 3.327 3.289 3.313 3.333 3.335 3.322 3.301 3.001
# coordination-number N 3.178 3.178 3.176 3.183
# coordination-number Ti 7.480
# coordination-number O 2.000 1.051 1.983
# coordination-number H 1.002 0.993
# diagonal-C6 C 24.28 24.06 23.92 23.94 24.16 24.37 24.02 20.54 23.96 24.14 24.25 23.94 24.23 24.27 24.02 20.08 24.59 24.28 24.09 23.92 24.00 24.25 24.26 24.00 23.91 24.09 24.28 24.57 20.65 24.02 24.26 24.21 24.03 24.26 24.15 23.97 20.07 24.01 24.38 24.16 23.95 23.92 24.06 24.27 25.67
# diagonal-C6 N 15.60 15.60 15.60 15.60
# diagonal-C6 Ti 321.59
# diagonal-C6 O 10.41 12.77 10.41
# diagonal-C6 H 3.09 3.09
EvdW_6 =   -0.044040
EvdW_8 =   -0.033561
Completed 3 of 19 configurations.

Computing DFT-D3 correction:
# coordination-number C 3.301 3.322 3.335 3.333 3.313 3.290 3.326 3.579 3.331 3.314 3.304 3.333 3.306 3.301 3.326 3.617 3.265 3.300 3.319 3.335 3.328 3.303 3.302 3.327 3.336 3.319 3.300 3.268 3.570 3.326 3.302 3.307 3.325 3.303 3.314 3.330 3.618 3.327 3.289 3.313 3.333 3.335 3.322 3.301 3.000
# coordination-number N 3.178 3.178 3.176 3.183
# coordination-number Ti 7.479
# coordination-number O 2.000 1.051 1.983
# coordination-number H 1.002 0.993
# diagonal-C6 C 24.28 24.06 23.92 23.94 24.16 24.37 24.02 20.54 23.96 24.14 24.25 23.94 24.23 24.27 24.02 20.08 24.59 24.28 24.09 23.92 24.00 24.25 24.26 24.00 23.91 24.09 24.28 24.57 20.65 24.02 24.26 24.21 24.03 24.26 24.15 23.97 20.07 24.01 24.38 24.16 23.95 23.92 24.06 24.27 25.67
# diagonal-C6 N 15.60 15.60 15.60 15.60
# diagonal-C6 Ti 321.59
# diagonal-C6 O 10.41 12.77 10.41
# diagonal-C6 H 3.09 3.09
EvdW_6 =   -0.044040
EvdW_8 =   -0.033555
Shifting auxilliary hamiltonian by -0.000013 to set nElectrons=232.024642

-------- Electronic minimization -----------
	Linear fluid (dielectric constant: 78.4, screening length: 8.12261 Bohr) occupying 0.712602 of unit cell:	Completed after 7 iterations at t[s]:  12746.28
	FillingsUpdate:  mu: -0.160200000  nElectrons: 232.024642  magneticMoment: [ Abs: 0.00000  Tot: -0.00000 ]
ElecMinimize: Iter:   0  G: -367.643361226584432  |grad|_K:  7.102e-07  alpha:  1.000e+00
	Linear fluid (dielectric constant: 78.4, screening length: 8.12261 Bohr) occupying 0.712595 of unit cell:	Completed after 6 iterations at t[s]:  12852.29
	Linear fluid (dielectric constant: 78.4, screening length: 8.12261 Bohr) occupying 0.712598 of unit cell:	Completed after 2 iterations at t[s]:  12890.52
	FillingsUpdate:  mu: -0.160200000  nElectrons: 232.024073  magneticMoment: [ Abs: 0.00000  Tot: -0.00000 ]
	SubspaceRotationAdjust: set factor to 0.381
ElecMinimize: Iter:   1  G: -367.643428423130104  |grad|_K:  3.249e-07  alpha:  6.112e-01  linmin:  1.161e-05  t[s]:  12942.27
	Linear fluid (dielectric constant: 78.4, screening length: 8.12261 Bohr) occupying 0.712586 of unit cell:	Completed after 3 iterations at t[s]:  12987.78
	Linear fluid (dielectric constant: 78.4, screening length: 8.12261 Bohr) occupying 0.712584 of unit cell:	Completed after 2 iterations at t[s]:  13026.21
	FillingsUpdate:  mu: -0.160200000  nElectrons: 232.023561  magneticMoment: [ Abs: 0.00000  Tot: -0.00000 ]
	SubspaceRotationAdjust: set factor to 0.448
ElecMinimize: Iter:   2  G: -367.643444254299766  |grad|_K:  1.969e-07  alpha:  6.889e-01  linmin: -2.861e-05  t[s]:  13078.15
	Linear fluid (dielectric constant: 78.4, screening length: 8.12261 Bohr) occupying 0.712577 of unit cell:	Completed after 2 iterations at t[s]:  13123.03
	Linear fluid (dielectric constant: 78.4, screening length: 8.12261 Bohr) occupying 0.712575 of unit cell:	Completed after 1 iterations at t[s]:  13161.13
	FillingsUpdate:  mu: -0.160200000  nElectrons: 232.023154  magneticMoment: [ Abs: 0.00000  Tot: -0.00000 ]
	SubspaceRotationAdjust: set factor to 0.487
ElecMinimize: Iter:   3  G: -367.643451089836105  |grad|_K:  1.246e-07  alpha:  8.074e-01  linmin: -8.887e-05  t[s]:  13212.95
	Linear fluid (dielectric constant: 78.4, screening length: 8.12261 Bohr) occupying 0.712568 of unit cell:	Completed after 3 iterations at t[s]:  13258.50
	Linear fluid (dielectric constant: 78.4, screening length: 8.12261 Bohr) occupying 0.712571 of unit cell:	Completed after 1 iterations at t[s]:  13296.23
	FillingsUpdate:  mu: -0.160200000  nElectrons: 232.022674  magneticMoment: [ Abs: 0.00000  Tot: -0.00000 ]
	SubspaceRotationAdjust: set factor to 0.443
ElecMinimize: Iter:   4  G: -367.643452648707921  |grad|_K:  7.642e-08  alpha:  4.464e-01  linmin:  1.096e-04  t[s]:  13348.19
	Linear fluid (dielectric constant: 78.4, screening length: 8.12261 Bohr) occupying 0.712568 of unit cell:	Completed after 2 iterations at t[s]:  13393.28
	Linear fluid (dielectric constant: 78.4, screening length: 8.12261 Bohr) occupying 0.712567 of unit cell:	Completed after 0 iterations at t[s]:  13429.74
	FillingsUpdate:  mu: -0.160200000  nElectrons: 232.022532  magneticMoment: [ Abs: 0.00000  Tot: -0.00000 ]
	SubspaceRotationAdjust: set factor to 0.557
ElecMinimize: Iter:   5  G: -367.643453367574125  |grad|_K:  3.420e-08  alpha:  5.581e-01  linmin: -8.191e-04  t[s]:  13481.83
	Linear fluid (dielectric constant: 78.4, screening length: 8.12261 Bohr) occupying 0.712567 of unit cell:	Completed after 2 iterations at t[s]:  13526.66
	Linear fluid (dielectric constant: 78.4, screening length: 8.12261 Bohr) occupying 0.712567 of unit cell:	Completed after 0 iterations at t[s]:  13562.91
	FillingsUpdate:  mu: -0.160200000  nElectrons: 232.022505  magneticMoment: [ Abs: 0.00000  Tot: -0.00000 ]
	SubspaceRotationAdjust: set factor to 0.547
ElecMinimize: Iter:   6  G: -367.643453519659943  |grad|_K:  3.147e-08  alpha:  5.473e-01  linmin: -1.472e-03  t[s]:  13615.01
	Linear fluid (dielectric constant: 78.4, screening length: 8.12261 Bohr) occupying 0.712565 of unit cell:	Completed after 1 iterations at t[s]:  13659.46
	Linear fluid (dielectric constant: 78.4, screening length: 8.12261 Bohr) occupying 0.712566 of unit cell:	Completed after 0 iterations at t[s]:  13696.12
	FillingsUpdate:  mu: -0.160200000  nElectrons: 232.022352  magneticMoment: [ Abs: 0.00000  Tot: -0.00000 ]
	SubspaceRotationAdjust: set factor to 0.422
ElecMinimize: Iter:   7  G: -367.643453628534928  |grad|_K:  1.766e-08  alpha:  4.050e-01  linmin:  5.390e-04  t[s]:  13747.95
	Linear fluid (dielectric constant: 78.4, screening length: 8.12261 Bohr) occupying 0.712566 of unit cell:	Completed after 0 iterations at t[s]:  13790.84
	Linear fluid (dielectric constant: 78.4, screening length: 8.12261 Bohr) occupying 0.712566 of unit cell:	Completed after 0 iterations at t[s]:  13827.43
	FillingsUpdate:  mu: -0.160200000  nElectrons: 232.022298  magneticMoment: [ Abs: 0.00000  Tot: -0.00000 ]
	SubspaceRotationAdjust: set factor to 0.522
ElecMinimize: Iter:   8  G: -367.643453668783138  |grad|_K:  1.198e-08  alpha:  6.534e-01  linmin:  5.345e-06  t[s]:  13879.47
	Linear fluid (dielectric constant: 78.4, screening length: 8.12261 Bohr) occupying 0.712566 of unit cell:	Completed after 1 iterations at t[s]:  13923.74
	Linear fluid (dielectric constant: 78.4, screening length: 8.12261 Bohr) occupying 0.712566 of unit cell:	Completed after 0 iterations at t[s]:  13960.38
ElecMinimize: 	Step increased G by 7.910330e-09, reducing alpha to 2.511451e-02.
	Linear fluid (dielectric constant: 78.4, screening length: 8.12261 Bohr) occupying 0.712566 of unit cell:	Completed after 0 iterations at t[s]:  14045.64
ElecMinimize: 	Step increased G by 1.123533e-08, reducing alpha to 2.511451e-03.
	Linear fluid (dielectric constant: 78.4, screening length: 8.12261 Bohr) occupying 0.712566 of unit cell:	Completed after 0 iterations at t[s]:  14130.44
ElecMinimize: 	Step increased G by 1.173817e-08, reducing alpha to 2.511451e-04.
ElecMinimize: 	Step failed to reduce G after 3 attempts. Quitting step.
ElecMinimize: 	Undoing step.
	Linear fluid (dielectric constant: 78.4, screening length: 8.12261 Bohr) occupying 0.712566 of unit cell:	Completed after 0 iterations at t[s]:  14215.35
ElecMinimize: 	Step failed: resetting search direction.
	FillingsUpdate:  mu: -0.160200000  nElectrons: 232.022298  magneticMoment: [ Abs: 0.00000  Tot: -0.00000 ]
	SubspaceRotationAdjust: set factor to 0.483
ElecMinimize: Iter:   9  G: -367.643453657063333  |grad|_K:  1.265e-08  alpha:  2.511e-04
	Linear fluid (dielectric constant: 78.4, screening length: 8.12261 Bohr) occupying 0.712565 of unit cell:	Completed after 0 iterations at t[s]:  14310.68
	Linear fluid (dielectric constant: 78.4, screening length: 8.12261 Bohr) occupying 0.712565 of unit cell:	Completed after 0 iterations at t[s]:  14347.48
	FillingsUpdate:  mu: -0.160200000  nElectrons: 232.022236  magneticMoment: [ Abs: 0.00000  Tot: -0.00000 ]
	SubspaceRotationAdjust: set factor to 0.605
ElecMinimize: Iter:  10  G: -367.643453682046243  |grad|_K:  9.392e-09  alpha:  7.178e-01  linmin: -2.024e-05  t[s]:  14399.23
	Linear fluid (dielectric constant: 78.4, screening length: 8.12261 Bohr) occupying 0.712564 of unit cell:	Completed after 2 iterations at t[s]:  14444.62
	Linear fluid (dielectric constant: 78.4, screening length: 8.12261 Bohr) occupying 0.712565 of unit cell:	Completed after 0 iterations at t[s]:  14481.57
ElecMinimize: 	Step increased G by 1.607680e-08, reducing alpha to 1.196331e-02.
	Linear fluid (dielectric constant: 78.4, screening length: 8.12261 Bohr) occupying 0.712565 of unit cell:	Completed after 0 iterations at t[s]:  14566.30
ElecMinimize: 	Step increased G by 1.088489e-08, reducing alpha to 1.196331e-03.
	Linear fluid (dielectric constant: 78.4, screening length: 8.12261 Bohr) occupying 0.712565 of unit cell:	Completed after 0 iterations at t[s]:  14649.47
ElecMinimize: 	Step increased G by 1.041764e-08, reducing alpha to 1.196331e-04.
ElecMinimize: 	Step failed to reduce G after 3 attempts. Quitting step.
ElecMinimize: 	Undoing step.
	Linear fluid (dielectric constant: 78.4, screening length: 8.12261 Bohr) occupying 0.712565 of unit cell:	Completed after 0 iterations at t[s]:  14734.24
ElecMinimize: 	Step failed: resetting search direction.
[...]
disp C   0.001635373861338  -0.004095581721121  -0.001694247065050
disp N   0.000000000000000   0.000000000000000   0.000000000000000
disp N   0.000000000000000   0.000000000000000   0.000000000000000
disp N   0.000000000000000   0.000000000000000   0.000000000000000
disp N   0.000000000000000   0.000000000000000   0.000000000000000
disp Ti   0.000000000000000   0.000000000000000   0.000000000000000
disp O  -0.001450556212017   0.003646083913272   0.000533565889306
disp O   0.000032405820493  -0.000366292169734   0.001177773778120
disp O  -0.000110763413952   0.000035375709255   0.000050238719783
disp H   0.000113493149344   0.000095465566560  -0.001957612001804
disp H   0.000653936809507  -0.000714937588407  -0.000386788914291

Real mode 11:
Frequency: 0.007125 Eh [ 1564 cm^-1 ]
Degeneracy: 1 of 1
IR intensity: 0.6815 e^2/amu [ 664.3 km/mol ]
Displacements:
disp C   0.000000000000000   0.000000000000000   0.000000000000000
disp C   0.000000000000000   0.000000000000000   0.000000000000000
disp C   0.000000000000000   0.000000000000000   0.000000000000000
disp C   0.000000000000000   0.000000000000000   0.000000000000000
disp C   0.000000000000000   0.000000000000000   0.000000000000000
disp C   0.000000000000000   0.000000000000000   0.000000000000000
disp C   0.000000000000000   0.000000000000000   0.000000000000000
disp C   0.000000000000000   0.000000000000000   0.000000000000000
disp C   0.000000000000000   0.000000000000000   0.000000000000000
disp C   0.000000000000000   0.000000000000000   0.000000000000000
disp C   0.000000000000000   0.000000000000000   0.000000000000000
disp C   0.000000000000000   0.000000000000000   0.000000000000000
disp C   0.000000000000000   0.000000000000000   0.000000000000000
disp C   0.000000000000000   0.000000000000000   0.000000000000000
disp C   0.000000000000000   0.000000000000000   0.000000000000000
disp C   0.000000000000000   0.000000000000000   0.000000000000000
disp C   0.000000000000000   0.000000000000000   0.000000000000000
disp C   0.000000000000000   0.000000000000000   0.000000000000000
disp C   0.000000000000000   0.000000000000000   0.000000000000000
disp C   0.000000000000000   0.000000000000000   0.000000000000000
disp C   0.000000000000000   0.000000000000000   0.000000000000000
disp C   0.000000000000000   0.000000000000000   0.000000000000000
disp C   0.000000000000000   0.000000000000000   0.000000000000000
disp C   0.000000000000000   0.000000000000000   0.000000000000000
disp C   0.000000000000000   0.000000000000000   0.000000000000000
disp C   0.000000000000000   0.000000000000000   0.000000000000000
disp C   0.000000000000000   0.000000000000000   0.000000000000000
disp C   0.000000000000000   0.000000000000000   0.000000000000000
disp C   0.000000000000000   0.000000000000000   0.000000000000000
disp C   0.000000000000000   0.000000000000000   0.000000000000000
disp C   0.000000000000000   0.000000000000000   0.000000000000000
disp C   0.000000000000000   0.000000000000000   0.000000000000000
disp C   0.000000000000000   0.000000000000000   0.000000000000000
disp C   0.000000000000000   0.000000000000000   0.000000000000000
disp C   0.000000000000000   0.000000000000000   0.000000000000000
disp C   0.000000000000000   0.000000000000000   0.000000000000000
disp C   0.000000000000000   0.000000000000000   0.000000000000000
disp C   0.000000000000000   0.000000000000000   0.000000000000000
disp C   0.000000000000000   0.000000000000000   0.000000000000000
disp C   0.000000000000000   0.000000000000000   0.000000000000000
disp C   0.000000000000000   0.000000000000000   0.000000000000000
disp C   0.000000000000000   0.000000000000000   0.000000000000000
disp C   0.000000000000000   0.000000000000000   0.000000000000000
disp C   0.000000000000000   0.000000000000000   0.000000000000000
disp C  -0.000619804480412   0.001804632206641  -0.002988373737811
disp N   0.000000000000000   0.000000000000000   0.000000000000000
disp N   0.000000000000000   0.000000000000000   0.000000000000000
disp N   0.000000000000000   0.000000000000000   0.000000000000000
disp N   0.000000000000000   0.000000000000000   0.000000000000000
disp Ti   0.000000000000000   0.000000000000000   0.000000000000000
disp O   0.000057253453392  -0.000175923079259   0.000010552074834
disp O   0.000191616525151  -0.000990622806379   0.001892753980024
disp O  -0.001160675132236   0.000131699639726  -0.000220717589683
disp H   0.011826452979968   0.005845372073082   0.002345808970008
disp H   0.006701566354109  -0.008583609478694  -0.000570193412128

Real mode 12:
Frequency: 0.007320 Eh [ 1606 cm^-1 ]
Degeneracy: 1 of 1
IR intensity: 0.7936 e^2/amu [ 773.6 km/mol ]
Displacements:
disp C   0.000000000000000   0.000000000000000   0.000000000000000
disp C   0.000000000000000   0.000000000000000   0.000000000000000
disp C   0.000000000000000   0.000000000000000   0.000000000000000
disp C   0.000000000000000   0.000000000000000   0.000000000000000
disp C   0.000000000000000   0.000000000000000   0.000000000000000
disp C   0.000000000000000   0.000000000000000   0.000000000000000
disp C   0.000000000000000   0.000000000000000   0.000000000000000
disp C   0.000000000000000   0.000000000000000   0.000000000000000
disp C   0.000000000000000   0.000000000000000   0.000000000000000
disp C   0.000000000000000   0.000000000000000   0.000000000000000
disp C   0.000000000000000   0.000000000000000   0.000000000000000
disp C   0.000000000000000   0.000000000000000   0.000000000000000
disp C   0.000000000000000   0.000000000000000   0.000000000000000
disp C   0.000000000000000   0.000000000000000   0.000000000000000
disp C   0.000000000000000   0.000000000000000   0.000000000000000
disp C   0.000000000000000   0.000000000000000   0.000000000000000
disp C   0.000000000000000   0.000000000000000   0.000000000000000
disp C   0.000000000000000   0.000000000000000   0.000000000000000
disp C   0.000000000000000   0.000000000000000   0.000000000000000
disp C   0.000000000000000   0.000000000000000   0.000000000000000
disp C   0.000000000000000   0.000000000000000   0.000000000000000
disp C   0.000000000000000   0.000000000000000   0.000000000000000
disp C   0.000000000000000   0.000000000000000   0.000000000000000
disp C   0.000000000000000   0.000000000000000   0.000000000000000
disp C   0.000000000000000   0.000000000000000   0.000000000000000
disp C   0.000000000000000   0.000000000000000   0.000000000000000
disp C   0.000000000000000   0.000000000000000   0.000000000000000
disp C   0.000000000000000   0.000000000000000   0.000000000000000
disp C   0.000000000000000   0.000000000000000   0.000000000000000
disp C   0.000000000000000   0.000000000000000   0.000000000000000
disp C   0.000000000000000   0.000000000000000   0.000000000000000
disp C   0.000000000000000   0.000000000000000   0.000000000000000
disp C   0.000000000000000   0.000000000000000   0.000000000000000
disp C   0.000000000000000   0.000000000000000   0.000000000000000
disp C   0.000000000000000   0.000000000000000   0.000000000000000
disp C   0.000000000000000   0.000000000000000   0.000000000000000
disp C   0.000000000000000   0.000000000000000   0.000000000000000
disp C   0.000000000000000   0.000000000000000   0.000000000000000
disp C   0.000000000000000   0.000000000000000   0.000000000000000
disp C   0.000000000000000   0.000000000000000   0.000000000000000
disp C   0.000000000000000   0.000000000000000   0.000000000000000
disp C   0.000000000000000   0.000000000000000   0.000000000000000
disp C   0.000000000000000   0.000000000000000   0.000000000000000
disp C   0.000000000000000   0.000000000000000   0.000000000000000
disp C  -0.000635418162324   0.001942302382676  -0.003651922478267
disp N   0.000000000000000   0.000000000000000   0.000000000000000
disp N   0.000000000000000   0.000000000000000   0.000000000000000
disp N   0.000000000000000   0.000000000000000   0.000000000000000
disp N   0.000000000000000   0.000000000000000   0.000000000000000
disp Ti   0.000000000000000   0.000000000000000   0.000000000000000
disp O  -0.000002257906891  -0.000164462692910   0.000010455322008
disp O   0.000434167624686  -0.001271354550456   0.002281555316879
disp O   0.000941512723348  -0.000289252392846   0.000134375370297
disp H  -0.010626445749798  -0.004248179310229  -0.002128163820641
disp H  -0.005203368312640   0.006751138260469   0.000155288510802

Real mode 13:
Frequency: 0.014916 Eh [ 3274 cm^-1 ]
Degeneracy: 1 of 1
IR intensity: 1.2621 e^2/amu [ 1230.4 km/mol ]
Displacements:
disp C   0.000000000000000   0.000000000000000   0.000000000000000
disp C   0.000000000000000   0.000000000000000   0.000000000000000
disp C   0.000000000000000   0.000000000000000   0.000000000000000
disp C   0.000000000000000   0.000000000000000   0.000000000000000
disp C   0.000000000000000   0.000000000000000   0.000000000000000
disp C   0.000000000000000   0.000000000000000   0.000000000000000
disp C   0.000000000000000   0.000000000000000   0.000000000000000
disp C   0.000000000000000   0.000000000000000   0.000000000000000
disp C   0.000000000000000   0.000000000000000   0.000000000000000
disp C   0.000000000000000   0.000000000000000   0.000000000000000
disp C   0.000000000000000   0.000000000000000   0.000000000000000
disp C   0.000000000000000   0.000000000000000   0.000000000000000
disp C   0.000000000000000   0.000000000000000   0.000000000000000
disp C   0.000000000000000   0.000000000000000   0.000000000000000
disp C   0.000000000000000   0.000000000000000   0.000000000000000
disp C   0.000000000000000   0.000000000000000   0.000000000000000
disp C   0.000000000000000   0.000000000000000   0.000000000000000
disp C   0.000000000000000   0.000000000000000   0.000000000000000
disp C   0.000000000000000   0.000000000000000   0.000000000000000
disp C   0.000000000000000   0.000000000000000   0.000000000000000
disp C   0.000000000000000   0.000000000000000   0.000000000000000
disp C   0.000000000000000   0.000000000000000   0.000000000000000
disp C   0.000000000000000   0.000000000000000   0.000000000000000
disp C   0.000000000000000   0.000000000000000   0.000000000000000
disp C   0.000000000000000   0.000000000000000   0.000000000000000
disp C   0.000000000000000   0.000000000000000   0.000000000000000
disp C   0.000000000000000   0.000000000000000   0.000000000000000
disp C   0.000000000000000   0.000000000000000   0.000000000000000
disp C   0.000000000000000   0.000000000000000   0.000000000000000
disp C   0.000000000000000   0.000000000000000   0.000000000000000
disp C   0.000000000000000   0.000000000000000   0.000000000000000
disp C   0.000000000000000   0.000000000000000   0.000000000000000
disp C   0.000000000000000   0.000000000000000   0.000000000000000
disp C   0.000000000000000   0.000000000000000   0.000000000000000
disp C   0.000000000000000   0.000000000000000   0.000000000000000
disp C   0.000000000000000   0.000000000000000   0.000000000000000
disp C   0.000000000000000   0.000000000000000   0.000000000000000
disp C   0.000000000000000   0.000000000000000   0.000000000000000
disp C   0.000000000000000   0.000000000000000   0.000000000000000
disp C   0.000000000000000   0.000000000000000   0.000000000000000
disp C   0.000000000000000   0.000000000000000   0.000000000000000
disp C   0.000000000000000   0.000000000000000   0.000000000000000
disp C   0.000000000000000   0.000000000000000   0.000000000000000
disp C   0.000000000000000   0.000000000000000   0.000000000000000
disp C   0.000037815203082  -0.000115270234007   0.000126904567340
disp N   0.000000000000000   0.000000000000000   0.000000000000000
disp N   0.000000000000000   0.000000000000000   0.000000000000000
disp N   0.000000000000000   0.000000000000000   0.000000000000000
disp N   0.000000000000000   0.000000000000000   0.000000000000000
disp Ti   0.000000000000000   0.000000000000000   0.000000000000000
disp O  -0.000016781623616   0.000040226802644  -0.000039734028447
disp O  -0.000039183699635   0.000105065966477  -0.000075438839352
disp O   0.000650040433478  -0.001306007887528  -0.000134086483360
disp H  -0.008911668256733   0.020595682290723   0.001858632890558
disp H  -0.000777794991274  -0.001329639050595  -0.000226885705210

Real mode 14:
Frequency: 0.017545 Eh [ 3851 cm^-1 ]
Degeneracy: 1 of 1
IR intensity: 0.0610 e^2/amu [ 59.5 km/mol ]
Displacements:
disp C   0.000000000000000   0.000000000000000   0.000000000000000
disp C   0.000000000000000   0.000000000000000   0.000000000000000
disp C   0.000000000000000   0.000000000000000   0.000000000000000
disp C   0.000000000000000   0.000000000000000   0.000000000000000
disp C   0.000000000000000   0.000000000000000   0.000000000000000
disp C   0.000000000000000   0.000000000000000   0.000000000000000
disp C   0.000000000000000   0.000000000000000   0.000000000000000
disp C   0.000000000000000   0.000000000000000   0.000000000000000
disp C   0.000000000000000   0.000000000000000   0.000000000000000
disp C   0.000000000000000   0.000000000000000   0.000000000000000
disp C   0.000000000000000   0.000000000000000   0.000000000000000
disp C   0.000000000000000   0.000000000000000   0.000000000000000
disp C   0.000000000000000   0.000000000000000   0.000000000000000
disp C   0.000000000000000   0.000000000000000   0.000000000000000
disp C   0.000000000000000   0.000000000000000   0.000000000000000
disp C   0.000000000000000   0.000000000000000   0.000000000000000
disp C   0.000000000000000   0.000000000000000   0.000000000000000
disp C   0.000000000000000   0.000000000000000   0.000000000000000
disp C   0.000000000000000   0.000000000000000   0.000000000000000
disp C   0.000000000000000   0.000000000000000   0.000000000000000
disp C   0.000000000000000   0.000000000000000   0.000000000000000
disp C   0.000000000000000   0.000000000000000   0.000000000000000
disp C   0.000000000000000   0.000000000000000   0.000000000000000
disp C   0.000000000000000   0.000000000000000   0.000000000000000
disp C   0.000000000000000   0.000000000000000   0.000000000000000
disp C   0.000000000000000   0.000000000000000   0.000000000000000
disp C   0.000000000000000   0.000000000000000   0.000000000000000
disp C   0.000000000000000   0.000000000000000   0.000000000000000
disp C   0.000000000000000   0.000000000000000   0.000000000000000
disp C   0.000000000000000   0.000000000000000   0.000000000000000
disp C   0.000000000000000   0.000000000000000   0.000000000000000
disp C   0.000000000000000   0.000000000000000   0.000000000000000
disp C   0.000000000000000   0.000000000000000   0.000000000000000
disp C   0.000000000000000   0.000000000000000   0.000000000000000
disp C   0.000000000000000   0.000000000000000   0.000000000000000
disp C   0.000000000000000   0.000000000000000   0.000000000000000
disp C   0.000000000000000   0.000000000000000   0.000000000000000
disp C   0.000000000000000   0.000000000000000   0.000000000000000
disp C   0.000000000000000   0.000000000000000   0.000000000000000
disp C   0.000000000000000   0.000000000000000   0.000000000000000
disp C   0.000000000000000   0.000000000000000   0.000000000000000
disp C   0.000000000000000   0.000000000000000   0.000000000000000
disp C   0.000000000000000   0.000000000000000   0.000000000000000
disp C   0.000000000000000   0.000000000000000   0.000000000000000
disp C  -0.000014649666581   0.000014903078895  -0.000004851877804
disp N   0.000000000000000   0.000000000000000   0.000000000000000
disp N   0.000000000000000   0.000000000000000   0.000000000000000
disp N   0.000000000000000   0.000000000000000   0.000000000000000
disp N   0.000000000000000   0.000000000000000   0.000000000000000
disp Ti   0.000000000000000   0.000000000000000   0.000000000000000
disp O  -0.000006308488693   0.000009307163080   0.000006151326242
disp O   0.000006602384862  -0.000024516066867   0.000033103431355
disp O   0.001023765153571   0.000935690307593   0.000283505121519
disp H   0.000939430905540  -0.000739980572322   0.000042697434257
disp H  -0.017134278743231  -0.014157314908224  -0.004119198526587

Vibrational free energy components at T = 298 K:
	ZPE:          0.033773
	Evib:         0.037283
	TSvib:        0.006279
	Avib:         0.031004


Dumping 'jdft.n_up' ... done
Dumping 'jdft.n_dn' ... done
Dumping 'jdft.tau_up' ... done
Dumping 'jdft.tau_dn' ... done
Dumping 'jdft.eigenvals' ... done
Dumping 'jdft.eigStats' ... 
	eMin: -2.290894 at state 9 ( [ +0.000000 +0.000000 +0.000000 ] spin -1 )
	HOMO: -0.168479 at state 17 ( [ -0.333333 -0.333333 +0.000000 ] spin -1 )
	mu  : -0.160200
	LUMO: -0.157349 at state 13 ( [ +0.333333 +0.333333 +0.000000 ] spin -1 )
	eMax: +0.016303 at state 17 ( [ -0.333333 -0.333333 +0.000000 ] spin -1 )
	HOMO-LUMO gap: +0.011130
	Optical gap  : +0.011130 at state 17 ( [ -0.333333 -0.333333 +0.000000 ] spin -1 )
Dumping 'jdft.kPts' ... done
Dumping 'jdft.dosUp' ... done.
Dumping 'jdft.dosDn' ... done.
End date and time: Wed Nov  9 22:48:59 2022  (Duration: 0-9:40:11.45)
Done!

PROFILER:             augmentDensityGrid     0.619848 +/-     0.742360 s, 2305 calls,   1428.748915 s total
PROFILER:         augmentDensityGridGrad     0.472198 +/-     0.571232 s, 1335 calls,    630.384978 s total
PROFILER:        augmentDensitySpherical     0.000384 +/-     0.000515 s, 2305 calls,      0.884764 s total
PROFILER:    augmentDensitySphericalGrad     0.000410 +/-     0.000565 s, 1795 calls,      0.735997 s total
PROFILER:                 augmentOverlap     1.421910 +/-     2.076344 s, 4810 calls,   6839.388564 s total
PROFILER:        ColumnBundle::randomize     0.004949 +/-     0.000000 s,    1 calls,      0.004949 s total
PROFILER:                     diagouterI    16.789428 +/-     3.193834 s,  464 calls,   7790.294555 s total
PROFILER:              EdensityAndVscloc     6.601672 +/-     3.649359 s,  462 calls,   3049.972591 s total
PROFILER:                     EnlAndGrad     0.001245 +/-     0.001905 s, 2510 calls,      3.125354 s total
PROFILER:            ExCorrCommunication     0.060701 +/-     0.061798 s, 2983 calls,    181.070517 s total
PROFILER:               ExCorrFunctional     0.024744 +/-     0.005412 s,  520 calls,     12.867010 s total
PROFILER:                    ExCorrTotal     0.619391 +/-     0.134016 s,  520 calls,    322.083141 s total
PROFILER:                   Idag_DiagV_I    28.157992 +/-    11.179656 s,  340 calls,   9573.717182 s total
PROFILER:                    initWeights     1.822809 +/-     0.000000 s,    1 calls,      1.822809 s total
PROFILER:                    inv(matrix)     0.001998 +/-     0.001139 s,  389 calls,      0.777370 s total
PROFILER:            matrix::diagonalize     0.008516 +/-     0.005709 s,  773 calls,      6.582615 s total
PROFILER:                    matrix::set     0.000003 +/-     0.000004 s, 48013 calls,      0.127395 s total
PROFILER:            orthoMatrix(matrix)     0.001699 +/-     0.000948 s,  463 calls,      0.786814 s total
PROFILER:     RadialFunctionR::transform     0.002090 +/-     0.006958 s,  151 calls,      0.315596 s total
PROFILER:                    reduceKmesh     0.000000 +/-     0.000000 s,    1 calls,      0.000000 s total
PROFILER:   VanDerWaalsD3::energyAndGrad     0.034053 +/-     0.001725 s,   39 calls,      1.328065 s total
PROFILER:               WavefunctionDrag    28.196356 +/-     0.176654 s,   19 calls,    535.730772 s total
PROFILER:                            Y*M     0.656612 +/-     0.837866 s, 8498 calls,   5579.888687 s total
PROFILER:                          Y1^Y2     0.677316 +/-     0.849294 s, 6281 calls,   4254.221451 s total

MEMUSAGE:                   ColumnBundle     1.365987 GB
MEMUSAGE:        complexScalarFieldTilde     0.049438 GB
MEMUSAGE:                    IndexArrays     0.023178 GB
MEMUSAGE:                         matrix     0.020855 GB
MEMUSAGE:                           misc     0.051230 GB
MEMUSAGE:                    ScalarField     0.395508 GB
MEMUSAGE:               ScalarFieldTilde     0.262436 GB
MEMUSAGE:                          Total     1.683398 GB
