
*************** JDFTx 1.7.0 (git hash 5f12716a) ***************

Start date and time: Wed Nov  9 18:58:38 2022
Executable /home/nisi6161/jdftx_alpine/build/jdftx with command-line: -i in
Running on hosts (process indices):  c3cpu-c11-u9-2.rc.int.colorado.edu (0-17)
Divided in process groups (process indices):  0 (0)  1 (1)  2 (2)  3 (3)  4 (4)  5 (5)  6 (6)  7 (7)  8 (8)  9 (9)  10 (10)  11 (11)  12 (12)  13 (13)  14 (14)  15 (15)  16 (16)  17 (17)
Resource initialization completed at t[s]:      0.03
Run totals: 18 processes, 48 threads, 0 GPUs


Input parsed successfully to the following command list (including defaults):

basis kpoint-dependent
converge-empty-states yes
coords-type Cartesian
core-overlap-check none
coulomb-interaction Periodic
davidson-band-ratio 1.1
density-of-states Etol 1.000000e-06 Esigma 1.000000e-03 \
		Complete \
	Total \
	OrthoOrbital C 1   s \
	OrthoOrbital C 1   p \
	OrthoOrbital C 1   px \
	OrthoOrbital C 1   py \
	OrthoOrbital C 1   pz \
	OrthoOrbital C 2   s \
	OrthoOrbital C 2   p \
	OrthoOrbital C 2   px \
	OrthoOrbital C 2   py \
	OrthoOrbital C 2   pz \
	OrthoOrbital C 3   s \
	OrthoOrbital C 3   p \
	OrthoOrbital C 3   px \
	OrthoOrbital C 3   py \
	OrthoOrbital C 3   pz \
	OrthoOrbital C 4   s \
	OrthoOrbital C 4   p \
	OrthoOrbital C 4   px \
	OrthoOrbital C 4   py \
	OrthoOrbital C 4   pz \
	OrthoOrbital C 5   s \
	OrthoOrbital C 5   p \
	OrthoOrbital C 5   px \
	OrthoOrbital C 5   py \
	OrthoOrbital C 5   pz \
	OrthoOrbital C 6   s \
	OrthoOrbital C 6   p \
	OrthoOrbital C 6   px \
	OrthoOrbital C 6   py \
	OrthoOrbital C 6   pz \
	OrthoOrbital C 7   s \
	OrthoOrbital C 7   p \
	OrthoOrbital C 7   px \
	OrthoOrbital C 7   py \
	OrthoOrbital C 7   pz \
	OrthoOrbital C 8   s \
	OrthoOrbital C 8   p \
	OrthoOrbital C 8   px \
	OrthoOrbital C 8   py \
	OrthoOrbital C 8   pz \
	OrthoOrbital C 9   s \
	OrthoOrbital C 9   p \
	OrthoOrbital C 9   px \
	OrthoOrbital C 9   py \
	OrthoOrbital C 9   pz \
	OrthoOrbital C 10   s \
	OrthoOrbital C 10   p \
	OrthoOrbital C 10   px \
	OrthoOrbital C 10   py \
	OrthoOrbital C 10   pz \
	OrthoOrbital C 11   s \
	OrthoOrbital C 11   p \
	OrthoOrbital C 11   px \
	OrthoOrbital C 11   py \
	OrthoOrbital C 11   pz \
	OrthoOrbital C 12   s \
	OrthoOrbital C 12   p \
	OrthoOrbital C 12   px \
	OrthoOrbital C 12   py \
	OrthoOrbital C 12   pz \
	OrthoOrbital C 13   s \
	OrthoOrbital C 13   p \
	OrthoOrbital C 13   px \
	OrthoOrbital C 13   py \
	OrthoOrbital C 13   pz \
	OrthoOrbital C 14   s \
	OrthoOrbital C 14   p \
	OrthoOrbital C 14   px \
	OrthoOrbital C 14   py \
	OrthoOrbital C 14   pz \
	OrthoOrbital C 15   s \
	OrthoOrbital C 15   p \
	OrthoOrbital C 15   px \
	OrthoOrbital C 15   py \
	OrthoOrbital C 15   pz \
	OrthoOrbital C 16   s \
	OrthoOrbital C 16   p \
	OrthoOrbital C 16   px \
	OrthoOrbital C 16   py \
	OrthoOrbital C 16   pz \
	OrthoOrbital C 17   s \
	OrthoOrbital C 17   p \
	OrthoOrbital C 17   px \
	OrthoOrbital C 17   py \
	OrthoOrbital C 17   pz \
	OrthoOrbital C 18   s \
	OrthoOrbital C 18   p \
	OrthoOrbital C 18   px \
	OrthoOrbital C 18   py \
	OrthoOrbital C 18   pz \
	OrthoOrbital C 19   s \
	OrthoOrbital C 19   p \
	OrthoOrbital C 19   px \
	OrthoOrbital C 19   py \
	OrthoOrbital C 19   pz \
	OrthoOrbital C 20   s \
	OrthoOrbital C 20   p \
	OrthoOrbital C 20   px \
	OrthoOrbital C 20   py \
	OrthoOrbital C 20   pz \
	OrthoOrbital C 21   s \
	OrthoOrbital C 21   p \
	OrthoOrbital C 21   px \
	OrthoOrbital C 21   py \
	OrthoOrbital C 21   pz \
	OrthoOrbital C 22   s \
	OrthoOrbital C 22   p \
	OrthoOrbital C 22   px \
	OrthoOrbital C 22   py \
	OrthoOrbital C 22   pz \
	OrthoOrbital C 23   s \
	OrthoOrbital C 23   p \
	OrthoOrbital C 23   px \
	OrthoOrbital C 23   py \
	OrthoOrbital C 23   pz \
	OrthoOrbital C 24   s \
	OrthoOrbital C 24   p \
	OrthoOrbital C 24   px \
	OrthoOrbital C 24   py \
	OrthoOrbital C 24   pz \
	OrthoOrbital C 25   s \
	OrthoOrbital C 25   p \
	OrthoOrbital C 25   px \
	OrthoOrbital C 25   py \
	OrthoOrbital C 25   pz \
	OrthoOrbital C 26   s \
	OrthoOrbital C 26   p \
	OrthoOrbital C 26   px \
	OrthoOrbital C 26   py \
	OrthoOrbital C 26   pz \
	OrthoOrbital C 27   s \
	OrthoOrbital C 27   p \
	OrthoOrbital C 27   px \
	OrthoOrbital C 27   py \
	OrthoOrbital C 27   pz \
	OrthoOrbital C 28   s \
	OrthoOrbital C 28   p \
	OrthoOrbital C 28   px \
	OrthoOrbital C 28   py \
	OrthoOrbital C 28   pz \
	OrthoOrbital C 29   s \
	OrthoOrbital C 29   p \
	OrthoOrbital C 29   px \
	OrthoOrbital C 29   py \
	OrthoOrbital C 29   pz \
	OrthoOrbital C 30   s \
	OrthoOrbital C 30   p \
	OrthoOrbital C 30   px \
	OrthoOrbital C 30   py \
	OrthoOrbital C 30   pz \
	OrthoOrbital C 31   s \
	OrthoOrbital C 31   p \
	OrthoOrbital C 31   px \
	OrthoOrbital C 31   py \
	OrthoOrbital C 31   pz \
	OrthoOrbital C 32   s \
	OrthoOrbital C 32   p \
	OrthoOrbital C 32   px \
	OrthoOrbital C 32   py \
	OrthoOrbital C 32   pz \
	OrthoOrbital C 33   s \
	OrthoOrbital C 33   p \
	OrthoOrbital C 33   px \
	OrthoOrbital C 33   py \
	OrthoOrbital C 33   pz \
	OrthoOrbital C 34   s \
	OrthoOrbital C 34   p \
	OrthoOrbital C 34   px \
	OrthoOrbital C 34   py \
	OrthoOrbital C 34   pz \
	OrthoOrbital C 35   s \
	OrthoOrbital C 35   p \
	OrthoOrbital C 35   px \
	OrthoOrbital C 35   py \
	OrthoOrbital C 35   pz \
	OrthoOrbital C 36   s \
	OrthoOrbital C 36   p \
	OrthoOrbital C 36   px \
	OrthoOrbital C 36   py \
	OrthoOrbital C 36   pz \
	OrthoOrbital C 37   s \
	OrthoOrbital C 37   p \
	OrthoOrbital C 37   px \
	OrthoOrbital C 37   py \
	OrthoOrbital C 37   pz \
	OrthoOrbital C 38   s \
	OrthoOrbital C 38   p \
	OrthoOrbital C 38   px \
	OrthoOrbital C 38   py \
	OrthoOrbital C 38   pz \
	OrthoOrbital C 39   s \
	OrthoOrbital C 39   p \
	OrthoOrbital C 39   px \
	OrthoOrbital C 39   py \
	OrthoOrbital C 39   pz \
	OrthoOrbital C 40   s \
	OrthoOrbital C 40   p \
	OrthoOrbital C 40   px \
	OrthoOrbital C 40   py \
	OrthoOrbital C 40   pz \
	OrthoOrbital C 41   s \
	OrthoOrbital C 41   p \
	OrthoOrbital C 41   px \
	OrthoOrbital C 41   py \
	OrthoOrbital C 41   pz \
	OrthoOrbital C 42   s \
	OrthoOrbital C 42   p \
	OrthoOrbital C 42   px \
	OrthoOrbital C 42   py \
	OrthoOrbital C 42   pz \
	OrthoOrbital C 43   s \
	OrthoOrbital C 43   p \
	OrthoOrbital C 43   px \
	OrthoOrbital C 43   py \
	OrthoOrbital C 43   pz \
	OrthoOrbital C 44   s \
	OrthoOrbital C 44   p \
	OrthoOrbital C 44   px \
	OrthoOrbital C 44   py \
	OrthoOrbital C 44   pz \
	OrthoOrbital C 45   s \
	OrthoOrbital C 45   p \
	OrthoOrbital C 45   px \
	OrthoOrbital C 45   py \
	OrthoOrbital C 45   pz \
	OrthoOrbital N 1   s \
	OrthoOrbital N 1   p \
	OrthoOrbital N 1   px \
	OrthoOrbital N 1   py \
	OrthoOrbital N 1   pz \
	OrthoOrbital N 2   s \
	OrthoOrbital N 2   p \
	OrthoOrbital N 2   px \
	OrthoOrbital N 2   py \
	OrthoOrbital N 2   pz \
	OrthoOrbital N 3   s \
	OrthoOrbital N 3   p \
	OrthoOrbital N 3   px \
	OrthoOrbital N 3   py \
	OrthoOrbital N 3   pz \
	OrthoOrbital N 4   s \
	OrthoOrbital N 4   p \
	OrthoOrbital N 4   px \
	OrthoOrbital N 4   py \
	OrthoOrbital N 4   pz \
	OrthoOrbital Ti 1   s \
	OrthoOrbital Ti 1   p \
	OrthoOrbital Ti 1   px \
	OrthoOrbital Ti 1   py \
	OrthoOrbital Ti 1   pz \
	OrthoOrbital Ti 1   d \
	OrthoOrbital Ti 1   dxy \
	OrthoOrbital Ti 1   dyz \
	OrthoOrbital Ti 1   dz2 \
	OrthoOrbital Ti 1   dxz \
	OrthoOrbital Ti 1   dx2-y2 \
	OrthoOrbital O 1   s \
	OrthoOrbital O 1   p \
	OrthoOrbital O 1   px \
	OrthoOrbital O 1   py \
	OrthoOrbital O 1   pz \
	OrthoOrbital O 2   s \
	OrthoOrbital O 2   p \
	OrthoOrbital O 2   px \
	OrthoOrbital O 2   py \
	OrthoOrbital O 2   pz
dump End ElecDensity KEdensity BandEigs EigStats RhoAtom DOS Kpoints
dump Ionic State IonicPositions Lattice EigStats Ecomponents
dump 
dump 
dump 
dump 
dump 
dump 
dump 
dump 
dump-name jdft.$VAR
elec-cutoff 20
elec-eigen-algo Davidson
elec-ex-corr gga-PBE
elec-initial-magnetization 0.000000 no
elec-n-bands 135
elec-smearing Fermi 0.001
electronic-minimize  \
	dirUpdateScheme      FletcherReeves \
	linminMethod         DirUpdateRecommended \
	nIterations          100 \
	history              15 \
	knormThreshold       0 \
	energyDiffThreshold  1e-07 \
	nEnergyDiff          2 \
	alphaTstart          1 \
	alphaTmin            1e-10 \
	updateTestStepSize   yes \
	alphaTreduceFactor   0.1 \
	alphaTincreaseFactor 3 \
	nAlphaAdjustMax      3 \
	wolfeEnergy          0.0001 \
	wolfeGradient        0.9 \
	fdTest               no
exchange-regularization WignerSeitzTruncated
fluid LinearPCM 298.000000 1.013250
fluid-anion F- 0.5 MeanFieldLJ \
	epsBulk 1 \
	pMol 0 \
	epsInf 1 \
	Pvap 0 \
	sigmaBulk 0 \
	Rvdw 2.24877 \
	Res 0 \
	tauNuc 343133
fluid-cation Na+ 0.5 MeanFieldLJ \
	epsBulk 1 \
	pMol 0 \
	epsInf 1 \
	Pvap 0 \
	sigmaBulk 0 \
	Rvdw 2.19208 \
	Res 0 \
	tauNuc 343133
fluid-ex-corr lda-TF lda-PZ
fluid-gummel-loop 10 1.000000e-05
fluid-minimize  \
	dirUpdateScheme      PolakRibiere \
	linminMethod         DirUpdateRecommended \
	nIterations          400 \
	history              15 \
	knormThreshold       1e-11 \
	energyDiffThreshold  0 \
	nEnergyDiff          2 \
	alphaTstart          1 \
	alphaTmin            1e-10 \
	updateTestStepSize   yes \
	alphaTreduceFactor   0.1 \
	alphaTincreaseFactor 3 \
	nAlphaAdjustMax      6 \
	wolfeEnergy          0.0001 \
	wolfeGradient        0.9 \
	fdTest               no
fluid-solvent H2O 55.338 ScalarEOS \
	epsBulk 78.4 \
	pMol 0.92466 \
	epsInf 1.77 \
	Pvap 1.06736e-10 \
	sigmaBulk 4.62e-05 \
	Rvdw 2.61727 \
	Res 1.42 \
	tauNuc 343133 \
	poleEl 15 7 1
forces-output-coords Positions
ion C  -0.003720000000000   0.052109000000000  43.253112000000009 0
ion C  21.035877000000003   4.008437000000001  43.246883000000004 0
ion C  18.694833000000003   8.011874000000002  43.152152000000008 0
ion C  -7.042305000000002  12.015683000000001  43.135109000000007 0
ion C  -9.367912000000002  16.028628999999999  43.202718000000004 0
ion C   4.681477000000001   0.154124000000000   0.060645000000000 0
ion C   2.274417000000000   4.167745000000001   0.169478000000000 0
ion C  -0.123103999999999   7.983999000000001   0.129466000000000 0
ion C  -2.426562000000001  11.995126000000003   0.017735000000000 0
ion C  -4.717814000000002  16.027790000000000   0.000952000000000 0
ion C   9.368681000000000   0.052641000000000   0.036335000000000 0
ion C   7.068793000000000   4.161151000000001   0.118090000000000 0
ion C  -0.024977000000000  15.931758000000002   0.104594000000000 0
ion C   2.339552999999999  19.900363000000002   0.042607000000000 0
ion C  11.748551000000003   4.005656000000001  43.233647000000005 0
ion C   9.462092000000000   8.007978000000000   0.010598000000000 0
ion C   4.671224000000000  15.802391000000004   0.160784000000000 0
ion C   6.991380000000001  19.905830000000005   0.009257000000000 0
ion C  16.391902000000005   3.986397000000001  43.193418000000008 0
ion C  14.086418000000002   8.010890000000002  43.124468000000007 0
ion C  11.780374000000002  12.018244000000001  43.154617000000009 0
ion C   9.376733999999999  15.957591000000003  43.233733000000008 0
ion C  -0.024012000000000   2.731653000000001   0.037157000000000 0
ion C  -2.430081000000000   6.661621000000001  43.234122000000006 0
ion C  -4.738852000000001  10.663527000000000  43.163009000000010 0
ion C  -7.043809000000001  14.689875000000004  43.192510000000006 0
ion C  -9.374312000000002  18.715964000000003   0.005191000000000 0
ion C   4.674630000000001   2.874338000000000   0.146725000000000 0
ion C  -0.124533000000000  10.667229000000003   0.161735000000000 0
ion C  -2.400939000000002  14.670077000000003   0.047452000000000 0
ion C  -4.723664000000002  18.716183000000008   0.037027000000000 0
ion C   9.374858000000000   2.735777000000001   0.026905000000000 0
ion C   2.282276000000000  14.499263000000001   0.222121000000000 0
ion C  -0.018016000000001  18.615593000000004   0.054806000000000 0
ion C  14.067195999999999   2.648124000000001  43.234858000000010 0
ion C  11.773250000000001   6.678631000000001  43.189352000000007 0
ion C   9.465591999999999  10.697416000000002  43.243985000000009 0
ion C   7.079730999999997  14.526648000000003   0.090449000000000 0
ion C   4.664951000000000  18.522866000000004   0.070162000000000 0
ion C  18.718698000000000   2.649521000000000  43.225860000000004 0
ion C  16.390315999999999   6.660010000000001  43.135498000000005 0
ion C  14.090236000000001  10.683290000000001  43.113610000000008 0
ion C  11.749963999999999  14.689002000000002  43.184983000000010 0
ion C   9.356842000000000  18.635699000000006  43.242384000000008 0
ion C   4.328721000000002   8.686515000000002   5.576474000000001 1
ion N   2.165314000000000  11.895865000000002   0.380310000000000 0
ion N   7.195391000000000  11.946272000000002   0.155506000000000 0
ion N   2.157417000000001   6.753665000000002   0.325980000000000 0
ion N   7.177697000000002   6.760592000000002   0.199671000000000 0
ion Ti   4.762031000000000   9.331979000000000   1.735962000000000 0
ion O   6.361126999999996  10.074621000000002   5.126262000000001 1
ion O   3.619791000000000   8.007742000000002   7.727048000000001 1
ion-species /projects/musgravc/apps/jdftx-1.6.0/build/pseudopotentials/GBRV_v1.5/$ID_pbe_v1.uspp
ion-species /projects/musgravc/apps/jdftx-1.6.0/build/pseudopotentials/GBRV_v1.5/$ID_pbe_v1.2.uspp
ion-species /projects/musgravc/apps/jdftx-1.6.0/build/pseudopotentials/GBRV_v1.5/$ID_pbe_v1.4.uspp
ion-species /projects/musgravc/apps/jdftx-1.6.0/build/pseudopotentials/GBRV_v1.5/$ID_pbe_v1.5.uspp
ion-width Ecut
ionic-minimize  \
	dirUpdateScheme      L-BFGS \
	linminMethod         DirUpdateRecommended \
	nIterations          100 \
	history              15 \
	knormThreshold       0.0001 \
	energyDiffThreshold  1e-06 \
	nEnergyDiff          2 \
	alphaTstart          1 \
	alphaTmin            1e-10 \
	updateTestStepSize   yes \
	alphaTreduceFactor   0.1 \
	alphaTincreaseFactor 1 \
	nAlphaAdjustMax      1 \
	wolfeEnergy          0.0001 \
	wolfeGradient        0.9 \
	fdTest               no
kpoint   0.000000000000   0.000000000000   0.000000000000  1.00000000000000
kpoint-folding 3 3 1 
latt-move-scale 0 0 0
latt-scale 1 1 1 
lattice  \
	  23.436261999999999  -11.733459000000000    0.000000000000000  \
	   0.017994000000000   19.941849000000001    0.000000000000000  \
	   0.000000000000000    0.000000000000000   43.256312999999999 
lattice-minimize  \
	dirUpdateScheme      L-BFGS \
	linminMethod         DirUpdateRecommended \
	nIterations          0 \
	history              15 \
	knormThreshold       0 \
	energyDiffThreshold  1e-06 \
	nEnergyDiff          2 \
	alphaTstart          1 \
	alphaTmin            1e-10 \
	updateTestStepSize   yes \
	alphaTreduceFactor   0.1 \
	alphaTincreaseFactor 3 \
	nAlphaAdjustMax      3 \
	wolfeEnergy          0.0001 \
	wolfeGradient        0.9 \
	fdTest               no
lcao-params 30 1e-06 0.001
pcm-variant CANDLE
spintype z-spin
subspace-rotation-factor 1 yes
symmetries none
symmetry-threshold 0.0001
target-mu -0.1272 no

van-der-waals D3
vibrations \
	dr 0.01\
	centralDiff no\
	useConstraints yes\
	translationSym yes\
	rotationSym no\
	omegaMin 0.0002\
	T 298\
	omegaResolution 0.0001


Applied RMS atom displacement 0 bohrs to make symmetries exact.
Applied RMS atom displacement 0 bohrs to make symmetries exact.

---------- Initializing the Grid ----------
R = 
[      23.4363     -11.7335            0  ]
[     0.017994      19.9418            0  ]
[            0            0      43.2563  ]
unit cell volume = 20225.5
G =
[   0.267976   0.157673         -0  ]
[ -0.000241801   0.314933          0  ]
[          0         -0   0.145255  ]
Minimum fftbox size, Smin = [  96  96  176  ]
Chosen fftbox size, S = [  96  96  180  ]

---------- Exchange Correlation functional ----------
Initalized PBE GGA exchange.
Initalized PBE GGA correlation.

---------- Setting up pseudopotentials ----------
Width of ionic core gaussian charges (only for fluid interactions / plotting) set to 0.397384

Reading pseudopotential file '/projects/musgravc/apps/jdftx-1.6.0/build/pseudopotentials/GBRV_v1.5/c_pbe_v1.2.uspp':
  Title: C.  Created by USPP 7.3.6 on 3-2-2014
  Reference state energy: -5.406344.  4 valence electrons in orbitals:
    |200>  occupation: 2  eigenvalue: -0.504890
    |210>  occupation: 2  eigenvalue: -0.194356
  lMax: 1  lLocal: 2  QijEcut: 5
  4 projectors sampled on a log grid with 503 points:
    l: 0  eig: -0.504890  rCut: 1.3
    l: 0  eig: 0.000000  rCut: 1.3
    l: 1  eig: -0.194357  rCut: 1.3
    l: 1  eig: 0.000000  rCut: 1.3
  Partial core density with radius 1.1
  Transforming core density to a uniform radial grid of dG=0.02 with 1464 points.
  Transforming local potential to a uniform radial grid of dG=0.02 with 1464 points.
  Transforming nonlocal projectors to a uniform radial grid of dG=0.02 with 432 points.
  Transforming density augmentations to a uniform radial grid of dG=0.02 with 1464 points.
  Transforming atomic orbitals to a uniform radial grid of dG=0.02 with 432 points.
  Core radius for overlap checks: 1.30 bohrs.

Reading pseudopotential file '/projects/musgravc/apps/jdftx-1.6.0/build/pseudopotentials/GBRV_v1.5/n_pbe_v1.2.uspp':
  Title: N.  Created by USPP 7.3.6 on 3-2-2014
  Reference state energy: -9.763716.  5 valence electrons in orbitals:
    |200>  occupation: 2  eigenvalue: -0.681964
    |210>  occupation: 3  eigenvalue: -0.260726
  lMax: 1  lLocal: 2  QijEcut: 6
  4 projectors sampled on a log grid with 491 points:
    l: 0  eig: -0.681964  rCut: 1.15
    l: 0  eig: 0.000000  rCut: 1.15
    l: 1  eig: -0.260729  rCut: 1.2
    l: 1  eig: 0.500000  rCut: 1.2
  Partial core density with radius 0.8
  Transforming core density to a uniform radial grid of dG=0.02 with 1464 points.
  Transforming local potential to a uniform radial grid of dG=0.02 with 1464 points.
  Transforming nonlocal projectors to a uniform radial grid of dG=0.02 with 432 points.
  Transforming density augmentations to a uniform radial grid of dG=0.02 with 1464 points.
  Transforming atomic orbitals to a uniform radial grid of dG=0.02 with 432 points.
  Core radius for overlap checks: 1.20 bohrs.

Reading pseudopotential file '/projects/musgravc/apps/jdftx-1.6.0/build/pseudopotentials/GBRV_v1.5/ti_pbe_v1.4.uspp':
  Title: Ti.  Created by USPP 7.3.6 on 31-3-15
  Reference state energy: -59.020943.  12 valence electrons in orbitals:
    |300>  occupation: 2  eigenvalue: -2.777623
    |310>  occupation: 6  eigenvalue: -1.894596
    |400>  occupation: 2  eigenvalue: -0.438610
    |320>  occupation: 1  eigenvalue: -0.583119
  lMax: 2  lLocal: 3  QijEcut: 6
  6 projectors sampled on a log grid with 597 points:
    l: 0  eig: -2.777624  rCut: 1.8
    l: 0  eig: -0.438611  rCut: 1.8
    l: 1  eig: -1.894596  rCut: 1.8
    l: 1  eig: 0.500000  rCut: 1.8
    l: 2  eig: -0.583118  rCut: 1.8
    l: 2  eig: 0.150000  rCut: 1.8
  Partial core density with radius 0.8
  Transforming core density to a uniform radial grid of dG=0.02 with 1464 points.
  Transforming local potential to a uniform radial grid of dG=0.02 with 1464 points.
  Transforming nonlocal projectors to a uniform radial grid of dG=0.02 with 432 points.
  Transforming density augmentations to a uniform radial grid of dG=0.02 with 1464 points.
  Transforming atomic orbitals to a uniform radial grid of dG=0.02 with 432 points.
  Core radius for overlap checks: 1.80 bohrs.

Reading pseudopotential file '/projects/musgravc/apps/jdftx-1.6.0/build/pseudopotentials/GBRV_v1.5/o_pbe_v1.2.uspp':
  Title: O.  Created by USPP 7.3.6 on 3-2-2014
  Reference state energy: -15.894388.  6 valence electrons in orbitals:
    |200>  occupation: 2  eigenvalue: -0.878823
    |210>  occupation: 4  eigenvalue: -0.332131
  lMax: 2  lLocal: 2  QijEcut: 6
  5 projectors sampled on a log grid with 511 points:
    l: 0  eig: -0.878823  rCut: 1.25
    l: 0  eig: 0.000000  rCut: 1.25
    l: 1  eig: -0.332132  rCut: 1.25
    l: 1  eig: 0.000000  rCut: 1.25
    l: 2  eig: 1.000000  rCut: 1.25
  Partial core density with radius 0.7
  Transforming core density to a uniform radial grid of dG=0.02 with 1464 points.
  Transforming local potential to a uniform radial grid of dG=0.02 with 1464 points.
  Transforming nonlocal projectors to a uniform radial grid of dG=0.02 with 432 points.
  Transforming density augmentations to a uniform radial grid of dG=0.02 with 1464 points.
  Transforming atomic orbitals to a uniform radial grid of dG=0.02 with 432 points.
  Core radius for overlap checks: 1.25 bohrs.

Initialized 4 species with 52 total atoms.

Folded 1 k-points by 3x3x1 to 9 k-points.

---------- Setting up k-points, bands, fillings ----------
No reducable k-points. 
Computing the number of bands and number of electrons
Calculating initial fillings.
nElectrons: 224.000000   nBands: 135   nStates: 18

----- Setting up reduced wavefunction bases (one per k-point) -----
average nbasis = 86412.556 , ideal nbasis = 86404.907

----- Initializing Supercell corresponding to k-point mesh -----
Lattice vector linear combinations in supercell:
[   3   0   0  ]
[   0   3   0  ]
[   0   0   1  ]
Supercell lattice vectors:
[  70.3088  -35.2004  0  ]
[  0.053982  59.8255  0  ]
[  0  0  43.2563  ]

Initializing DFT-D3 calculator:
	Parameters set for gga-PBE functional
	s6:  1.000  s_r6:  1.217
	s8:  0.722  s_r8:  1.000
	Per-atom parameters loaded for:
	 C:  sqrtQ[a0]:  3.105  Rcov[a0]:  1.417  CN: [ 0.00 0.99 2.00 3.00 3.98 ]
	 N:  sqrtQ[a0]:  2.712  Rcov[a0]:  1.342  CN: [ 0.00 0.99 2.01 2.99 ]
	Ti:  sqrtQ[a0]:  6.288  Rcov[a0]:  2.305  CN: [ 0.00 1.83 3.87 ]
	 O:  sqrtQ[a0]:  2.594  Rcov[a0]:  1.191  CN: [ 0.00 0.99 1.99 ]

Initializing DFT-D2 calculator for fluid / solvation:
	 C:  C6:   30.35 Eh-a0^6  R0: 2.744 a0
	 N:  C6:   21.33 Eh-a0^6  R0: 2.640 a0
	Ti:  C6:  187.33 Eh-a0^6  R0: 2.952 a0
	 O:  C6:   12.14 Eh-a0^6  R0: 2.536 a0

---------- Setting up ewald sum ----------
Optimum gaussian width for ewald sums = 5.626124 bohr.
Real space sum over 567 unit cells with max indices [  4  4  3  ]
Reciprocal space sum over 7803 terms with max indices [  8  8  13  ]

Computing DFT-D3 correction:
# coordination-number C 3.302 3.324 3.334 3.332 3.313 3.290 3.322 3.554 3.327 3.312 3.300 3.327 3.300 3.300 3.320 3.627 3.266 3.301 3.320 3.333 3.329 3.305 3.304 3.329 3.334 3.320 3.301 3.268 3.556 3.321 3.301 3.302 3.318 3.299 3.312 3.326 3.617 3.327 3.289 3.313 3.331 3.333 3.324 3.302 2.994
# coordination-number N 3.172 3.181 3.175 3.178
# coordination-number Ti 7.430
# coordination-number O 1.993 1.033
# diagonal-C6 C 24.26 24.04 23.93 23.96 24.15 24.38 24.06 20.87 24.01 24.16 24.28 24.01 24.28 24.29 24.08 19.97 24.58 24.27 24.09 23.94 23.99 24.23 24.24 23.98 23.93 24.09 24.27 24.57 20.84 24.07 24.28 24.27 24.10 24.29 24.17 24.02 20.07 24.01 24.39 24.15 23.96 23.94 24.04 24.26 25.68
# diagonal-C6 N 15.60 15.60 15.60 15.60
# diagonal-C6 Ti 321.59
# diagonal-C6 O 10.41 12.78
EvdW_6 =   -0.039581
EvdW_8 =   -0.031815

---------- Allocating electronic variables ----------
Initializing wave functions:  linear combination of atomic orbitals
C pseudo-atom occupations:   s ( 2 )  p ( 2 )
N pseudo-atom occupations:   s ( 2 )  p ( 3 )
Ti pseudo-atom occupations:   s ( 2 0 )  p ( 6 )  d ( 4 )
O pseudo-atom occupations:   s ( 2 )  p ( 4 )
	FillingsUpdate:  mu: -0.127200000  nElectrons: 224.000000  magneticMoment: [ Abs: 0.00435  Tot: +0.00001 ]
LCAOMinimize: Iter:   0  G: -353.3109124913415258  |grad|_K:  4.220e-03  alpha:  1.000e+00
	FillingsUpdate:  mu: -0.127200000  nElectrons: 224.000000  magneticMoment: [ Abs: 0.00427  Tot: -0.00000 ]
LCAOMinimize: Iter:   1  G: -354.6556262747938035  |grad|_K:  1.481e-03  alpha:  1.317e-01  linmin: -1.333e-01  cgtest:  1.765e+00  t[s]:    289.59
LCAOMinimize: Encountered beta<0, resetting CG.
LCAOMinimize: 	Wrong curvature in test step, increasing alphaT to 3.949586e-01.
	FillingsUpdate:  mu: -0.127200000  nElectrons: 224.000000  magneticMoment: [ Abs: 0.00424  Tot: -0.00007 ]
LCAOMinimize: Iter:   2  G: -354.9782545864909480  |grad|_K:  1.853e-03  alpha: -1.924e-01  linmin:  3.057e-02  cgtest:  5.514e-01  t[s]:    401.31
LCAOMinimize: 	Step increased G by 6.969229e-05, reducing alpha to 9.028012e-05.
	FillingsUpdate:  mu: -0.127200000  nElectrons: 224.000000  magneticMoment: [ Abs: 0.00424  Tot: -0.00007 ]
LCAOMinimize: Iter:   3  G: -354.9782595454534544  |grad|_K:  1.862e-03  alpha:  9.028e-05  linmin: -1.574e-04  cgtest:  9.996e-01  t[s]:    600.13
LCAOMinimize: 	Wrong curvature in test step, increasing alphaT to 2.708403e-04.
	FillingsUpdate:  mu: -0.127200000  nElectrons: 224.000000  magneticMoment: [ Abs: 0.00424  Tot: -0.00007 ]
LCAOMinimize: Iter:   4  G: -354.9785215474437337  |grad|_K:  1.857e-03  alpha: -7.980e-03  linmin: -3.213e-02  cgtest:  1.000e+00  t[s]:    712.46
LCAOMinimize: Encountered beta<0, resetting CG.
	FillingsUpdate:  mu: -0.127200000  nElectrons: 224.000000  magneticMoment: [ Abs: 0.00425  Tot: -0.00005 ]
LCAOMinimize: Iter:   5  G: -355.0637619776135807  |grad|_K:  1.354e-03  alpha:  6.057e-02  linmin: -5.167e-02  cgtest: -6.375e-02  t[s]:    826.97
LCAOMinimize: 	Wrong curvature in test step, increasing alphaT to 1.817004e-01.
	FillingsUpdate:  mu: -0.127200000  nElectrons: 224.000000  magneticMoment: [ Abs: 0.00427  Tot: -0.00009 ]
LCAOMinimize: Iter:   6  G: -355.2096585550641521  |grad|_K:  1.308e-03  alpha: -3.450e-01  linmin: -7.474e-02  cgtest:  8.106e-01  t[s]:    939.39
	FillingsUpdate:  mu: -0.127200000  nElectrons: 224.000000  magneticMoment: [ Abs: 0.00429  Tot: -0.00011 ]
LCAOMinimize: Iter:   7  G: -355.2747649644086323  |grad|_K:  1.239e-03  alpha:  3.606e-02  linmin: -1.332e-01  cgtest:  8.365e-01  t[s]:   1053.97
LCAOMinimize: 	Wrong curvature in test step, increasing alphaT to 1.081773e-01.
	FillingsUpdate:  mu: -0.127200000  nElectrons: 224.000000  magneticMoment: [ Abs: 0.00431  Tot: -0.00014 ]
LCAOMinimize: Iter:   8  G: -355.3296544455979529  |grad|_K:  1.232e-03  alpha: -4.166e-01  linmin: -2.074e-01  cgtest:  9.117e-01  t[s]:   1165.91
	FillingsUpdate:  mu: -0.127200000  nElectrons: 224.000000  magneticMoment: [ Abs: 0.00433  Tot: -0.00016 ]
LCAOMinimize: Iter:   9  G: -355.3739666214603972  |grad|_K:  1.226e-03  alpha:  3.074e-02  linmin: -2.298e-01  cgtest:  9.293e-01  t[s]:   1280.62
LCAOMinimize: 	Wrong curvature in test step, increasing alphaT to 9.223394e-02.
	FillingsUpdate:  mu: -0.127200000  nElectrons: 224.000000  magneticMoment: [ Abs: 0.00435  Tot: -0.00019 ]
LCAOMinimize: Iter:  10  G: -355.4167206733255284  |grad|_K:  1.214e-03  alpha: -4.966e-01  linmin: -2.359e-01  cgtest:  9.321e-01  t[s]:   1392.68
	FillingsUpdate:  mu: -0.127200000  nElectrons: 224.000000  magneticMoment: [ Abs: 0.00438  Tot: -0.00023 ]
LCAOMinimize: Iter:  11  G: -355.4563612124709380  |grad|_K:  1.195e-03  alpha:  2.952e-02  linmin: -2.422e-01  cgtest:  9.359e-01  t[s]:   1506.86
LCAOMinimize: 	Wrong curvature in test step, increasing alphaT to 8.855902e-02.
	FillingsUpdate:  mu: -0.127200000  nElectrons: 224.000000  magneticMoment: [ Abs: 0.00441  Tot: -0.00027 ]
LCAOMinimize: Iter:  12  G: -355.4941361589914095  |grad|_K:  1.167e-03  alpha: -7.145e-01  linmin: -2.493e-01  cgtest:  9.378e-01  t[s]:   1619.33
	FillingsUpdate:  mu: -0.127200000  nElectrons: 224.000000  magneticMoment: [ Abs: 0.00445  Tot: -0.00031 ]
LCAOMinimize: Iter:  13  G: -355.5271284561122229  |grad|_K:  1.133e-03  alpha:  2.750e-02  linmin: -2.558e-01  cgtest:  9.444e-01  t[s]:   1733.86
LCAOMinimize: 	Wrong curvature in test step, increasing alphaT to 8.251406e-02.
	FillingsUpdate:  mu: -0.127200000  nElectrons: 224.000000  magneticMoment: [ Abs: 0.00449  Tot: -0.00036 ]
LCAOMinimize: Iter:  14  G: -355.5575986807569961  |grad|_K:  1.091e-03  alpha: -1.735e+00  linmin: -2.623e-01  cgtest:  9.472e-01  t[s]:   1845.87
	FillingsUpdate:  mu: -0.127200000  nElectrons: 224.000000  magneticMoment: [ Abs: 0.00454  Tot: -0.00041 ]
LCAOMinimize: Iter:  15  G: -355.5834907311336792  |grad|_K:  1.044e-03  alpha:  2.569e-02  linmin: -2.680e-01  cgtest:  9.536e-01  t[s]:   1960.34
LCAOMinimize: 	Predicted alpha/alphaT>3.000000, increasing alphaT to 7.705794e-02.
LCAOMinimize: 	Predicted alpha/alphaT>3.000000, increasing alphaT to 2.311738e-01.
LCAOMinimize: 	Step increased G by 6.618889e-01, reducing alpha to 3.358970e-02.
	FillingsUpdate:  mu: -0.127200000  nElectrons: 224.000000  magneticMoment: [ Abs: 0.00460  Tot: -0.00049 ]
LCAOMinimize: Iter:  16  G: -355.6139307252138906  |grad|_K:  9.736e-04  alpha:  3.359e-02  linmin: -2.750e-01  cgtest:  9.434e-01  t[s]:   2218.78
LCAOMinimize: Encountered beta<0, resetting CG.
LCAOMinimize: 	Predicted alpha/alphaT>3.000000, increasing alphaT to 1.007691e-01.
LCAOMinimize: 	Predicted alpha/alphaT>3.000000, increasing alphaT to 3.023073e-01.
	FillingsUpdate:  mu: -0.127200000  nElectrons: 224.000000  magneticMoment: [ Abs: 0.00495  Tot: -0.00091 ]
LCAOMinimize: Iter:  17  G: -355.7173689357209128  |grad|_K:  3.692e-04  alpha:  1.590e-01  linmin: -2.702e-01  cgtest:  7.188e-01  t[s]:   2392.02
LCAOMinimize: Encountered beta<0, resetting CG.
	FillingsUpdate:  mu: -0.127200000  nElectrons: 224.000000  magneticMoment: [ Abs: 0.00551  Tot: -0.00153 ]
LCAOMinimize: Iter:  18  G: -355.7287196608482418  |grad|_K:  1.552e-04  alpha:  2.133e-01  linmin:  8.208e-02  cgtest: -3.270e-01  t[s]:   2506.66
	FillingsUpdate:  mu: -0.127200000  nElectrons: 224.000000  magneticMoment: [ Abs: 0.00715  Tot: -0.00324 ]
LCAOMinimize: Iter:  19  G: -355.7303193343090015  |grad|_K:  1.197e-04  alpha:  2.500e-01  linmin:  3.841e-02  cgtest:  4.294e-01  t[s]:   2621.26
	FillingsUpdate:  mu: -0.127200000  nElectrons: 224.000000  magneticMoment: [ Abs: 0.00926  Tot: -0.00543 ]
LCAOMinimize: Iter:  20  G: -355.7311428988376178  |grad|_K:  5.715e-05  alpha:  1.628e-01  linmin: -5.507e-02  cgtest:  3.129e-01  t[s]:   2735.90
	FillingsUpdate:  mu: -0.127200000  nElectrons: 224.000000  magneticMoment: [ Abs: 0.01273  Tot: -0.00899 ]
LCAOMinimize: Iter:  21  G: -355.7313791127931495  |grad|_K:  2.423e-05  alpha:  1.671e-01  linmin: -1.036e-01  cgtest:  5.671e-01  t[s]:   2850.48
LCAOMinimize: Encountered beta<0, resetting CG.
	FillingsUpdate:  mu: -0.127200000  nElectrons: 224.000000  magneticMoment: [ Abs: 0.01603  Tot: -0.01238 ]
LCAOMinimize: Iter:  22  G: -355.7313943252184458  |grad|_K:  1.834e-05  alpha:  1.049e-01  linmin: -1.560e-01  cgtest:  8.544e-01  t[s]:   2965.08
LCAOMinimize: Encountered beta<0, resetting CG.
LCAOMinimize: 	Wrong curvature in test step, increasing alphaT to 3.145558e-01.
	FillingsUpdate:  mu: -0.127200000  nElectrons: 224.000000  magneticMoment: [ Abs: 0.02071  Tot: -0.01715 ]
LCAOMinimize: Iter:  23  G: -355.7314259105151564  |grad|_K:  1.573e-05  alpha: -6.897e-01  linmin: -1.364e-01  cgtest:  9.796e-01  t[s]:   3077.44
LCAOMinimize: Encountered beta<0, resetting CG.
	FillingsUpdate:  mu: -0.127200000  nElectrons: 224.000000  magneticMoment: [ Abs: 0.08913  Tot: -0.08591 ]
LCAOMinimize: Iter:  24  G: -355.7315382159748651  |grad|_K:  2.544e-05  alpha:  1.102e+00  linmin:  4.580e-03  cgtest: -8.490e-02  t[s]:   3192.31
LCAOMinimize: 	Wrong curvature in test step, increasing alphaT to 3.306051e+00.
	FillingsUpdate:  mu: -0.127200000  nElectrons: 224.000000  magneticMoment: [ Abs: 0.44403  Tot: -0.42559 ]
LCAOMinimize: Iter:  25  G: -355.7320690577365667  |grad|_K:  1.000e-04  alpha: -9.429e+00  linmin:  3.395e-02  cgtest:  8.223e-01  t[s]:   3304.48
LCAOMinimize: 	Bad step direction: g.d > 0.
LCAOMinimize: 	Undoing step.
LCAOMinimize: 	Step failed: resetting search direction.
	FillingsUpdate:  mu: -0.127200000  nElectrons: 224.000000  magneticMoment: [ Abs: 0.44403  Tot: -0.42559 ]
LCAOMinimize: Iter:  26  G: -355.7320690577365667  |grad|_K:  1.000e-04  alpha:  0.000e+00
	FillingsUpdate:  mu: -0.127200000  nElectrons: 224.000000  magneticMoment: [ Abs: 0.45040  Tot: -0.43469 ]
LCAOMinimize: Iter:  27  G: -355.7323462754396814  |grad|_K:  8.503e-05  alpha:  2.122e-01  linmin:  9.174e-03  cgtest: -1.752e-01  t[s]:   3504.28
LCAOMinimize: 	Predicted alpha/alphaT>3.000000, increasing alphaT to 6.364595e-01.
	FillingsUpdate:  mu: -0.127200000  nElectrons: 224.000000  magneticMoment: [ Abs: 0.51899  Tot: -0.46501 ]
LCAOMinimize: Iter:  28  G: -355.7335224005524310  |grad|_K:  2.304e-05  alpha:  2.854e-01  linmin: -6.231e-02  cgtest:  1.751e-01  t[s]:   3648.05
LCAOMinimize: 	Predicted alpha/alphaT>3.000000, increasing alphaT to 8.560706e-01.
	FillingsUpdate:  mu: -0.127200000  nElectrons: 224.000000  magneticMoment: [ Abs: 0.54041  Tot: -0.46670 ]
LCAOMinimize: Iter:  29  G: -355.7336833351306495  |grad|_K:  3.140e-05  alpha:  6.192e-01  linmin:  3.896e-02  cgtest: -3.626e-01  t[s]:   3791.76
	FillingsUpdate:  mu: -0.127200000  nElectrons: 224.000000  magneticMoment: [ Abs: 0.55747  Tot: -0.47151 ]
LCAOMinimize: Iter:  30  G: -355.7337564556065104  |grad|_K:  2.576e-05  alpha:  9.358e-02  linmin: -2.750e-03  cgtest:  8.763e-01  t[s]:   3906.90
LCAOMinimize: Encountered beta<0, resetting CG.
LCAOMinimize: None of the convergence criteria satisfied after 30 iterations.
----- createFluidSolver() ----- (Fluid-side solver setup)
   Initializing fluid molecule 'H2O'
     Initializing site 'O'
       Electron density: proportional to exp(-r/0.36935)*erfc((r-0.51523)/0.36823) with norm 6.826
       Charge density: gaussian nuclear width 0.478731 with net site charge 0.826
       Polarizability: cuspless exponential with width 0.32 and norm 3.73
       Hard sphere radius: 2.57003 bohrs
       Positions in reference frame:
         [ +0.000000 +0.000000 +0.000000 ]
     Initializing site 'H'
       Electron density: proportional to exp(-r/0.34641)*erfc((r-0)/0.390882) with norm 0.587
       Charge density: gaussian nuclear width 0.377945 with net site charge -0.413
       Polarizability: cuspless exponential with width 0.39 and norm 3.3
       Positions in reference frame:
         [ +0.000000 -1.441945 +1.122523 ]
         [ +0.000000 +1.441945 +1.122523 ]
     Net charge: 0   dipole magnitude: 0.927204
     Initializing spherical shell mfKernel with radius 2.61727 Bohr
     deltaS corrections:
       site 'O': -7.54299
       site 'H': -6.83917
   Initializing fluid molecule 'Na+'
     Initializing site 'Na'
       Electron density: proportional to exp(-r/0.19682)*erfc((r-0.71491)/0.41314) with norm 8.1383
       Charge density: gaussian nuclear width 0.365347 with net site charge -1
       Hard sphere radius: 1.86327 bohrs
       Positions in reference frame:
         [ +0.000000 +0.000000 +0.000000 ]
     Net charge: -1   dipole magnitude: 0
     Initializing gaussian mfKernel with width: 1.55004 Bohr
     deltaS corrections:
       site 'Na': -22.3555
   Initializing fluid molecule 'F-'
     Initializing site 'F'
       Electron density: proportional to exp(-r/0.38886)*erfc((r-0)/0.438782) with norm 8
       Charge density: gaussian nuclear width 0.374796 with net site charge 1
       Hard sphere radius: 2.39995 bohrs
       Positions in reference frame:
         [ +0.000000 +0.000000 +0.000000 ]
     Net charge: 1   dipole magnitude: 0
     Initializing gaussian mfKernel with width: 1.59012 Bohr
     deltaS corrections:
       site 'F': -9.04335

Correction to mu due to finite nuclear width = -0.0109887
   Cavity determined by nc: 0.00142 and sigma: 0.707107
   Nonlocal vdW cavity from gaussian model electron density with norm = 8 and sigma = 0.993594 bohr
   Charge asymmetry in cavity with sensitivity pCavity = 36.5 e-bohr/Eh
   Electrostatic cavity expanded by eta = 1.46 bohrs
   Weighted density cavitation model constrained by Nbulk: 0.0049383 bohr^-3, Pvap: 3.14029 kPa, Rvdw: 2.61727 bohr and sigmaBulk: 4.62e-05 Eh/bohr^2 at T: 298 K.
   Weighted density dispersion model using vdW pair potentials with single solvent site with sqrtC6eff: 0.77 SI.
WARNING: Vibrations: switching off translationSym and rotationSym since useConstraints is on.

---- Citations for features of the code used in this run ----

   Software package:
      R. Sundararaman, K. Letchworth-Weaver, K.A. Schwarz, D. Gunceler, Y. Ozhabes and T.A. Arias, 'JDFTx: software for joint density-functional theory', SoftwareX 6, 278 (2017)

   gga-PBE exchange-correlation functional:
      J.P. Perdew, K. Burke and M. Ernzerhof, Phys. Rev. Lett. 77, 3865 (1996)

   Pseudopotentials:
      KF Garrity, JW Bennett, KM Rabe and D Vanderbilt, Comput. Mater. Sci. 81, 446 (2014)

   DFT-D3 dispersion correction:
      S. Grimme, J. Antony, S. Ehrlich and H. Krieg, J. Chem. Phys. 132, 154104 (2010)

   DFT-D2 dispersion correction:
      S. Grimme, J. Comput. Chem. 27, 1787 (2006)

   Charge-asymmetric nonlocally-determined local-electric (CANDLE) solvation model:
      R. Sundararaman and W.A. Goddard III, J. Chem. Phys. 142, 064107 (2015)

   Total energy minimization with Auxiliary Hamiltonian:
      C. Freysoldt, S. Boeck, and J. Neugebauer, Phys. Rev. B 79, 241103(R) (2009)

   Grand-canonical (fixed-potential) DFT:
      R. Sundararaman, W. A. Goddard III and T. A. Arias, J. Chem. Phys. 146, 114104 (2017)

   Linear-tetrahedron sampling for density of states:
      G. Lehmann and M. Taut, Phys. status solidi (b) 54, 469 (1972)

This list may not be complete. Please suggest additional citations or
report any other bugs at https://github.com/shankar1729/jdftx/issues

Initialization completed successfully at t[s]:   3921.67

------ Vibrations::calculate() -------
WARNING: Vibrations module is experimental. Please report bugs!
Compare results with and without symmetries and report discrepancies.
Degrees of freedom: 9 total, 9 symmetry-independent.

Computing DFT-D3 correction:
# coordination-number C 3.302 3.324 3.334 3.332 3.313 3.290 3.322 3.554 3.327 3.312 3.300 3.327 3.300 3.300 3.320 3.627 3.266 3.301 3.320 3.333 3.329 3.305 3.304 3.329 3.334 3.320 3.301 3.268 3.556 3.321 3.301 3.302 3.318 3.299 3.312 3.326 3.617 3.327 3.289 3.313 3.331 3.333 3.324 3.302 2.994
# coordination-number N 3.172 3.181 3.175 3.178
# coordination-number Ti 7.430
# coordination-number O 1.993 1.033
# diagonal-C6 C 24.26 24.04 23.93 23.96 24.15 24.38 24.06 20.87 24.01 24.16 24.28 24.01 24.28 24.29 24.08 19.97 24.58 24.27 24.09 23.94 23.99 24.23 24.24 23.98 23.93 24.09 24.27 24.57 20.84 24.07 24.28 24.27 24.10 24.29 24.17 24.02 20.07 24.01 24.39 24.15 23.96 23.94 24.04 24.26 25.68
# diagonal-C6 N 15.60 15.60 15.60 15.60
# diagonal-C6 Ti 321.59
# diagonal-C6 O 10.41 12.78
EvdW_6 =   -0.039581
EvdW_8 =   -0.031815
Fluid solver invoked on fresh (random / LCAO) wavefunctions
Running a vacuum solve first:

-------- Initial electronic minimization -----------
	FillingsUpdate:  mu: -0.211803168  nElectrons: 224.000000  magneticMoment: [ Abs: 0.55747  Tot: -0.47151 ]
ElecMinimize: Iter:   0  G: -355.733071476281282  |grad|_K:  1.443e-04  alpha:  1.000e+00
	FillingsUpdate:  mu: -0.135412882  nElectrons: 224.000000  magneticMoment: [ Abs: 0.60238  Tot: -0.47905 ]
	SubspaceRotationAdjust: set factor to 1
ElecMinimize: Iter:   1  G: -358.676620154255033  |grad|_K:  5.171e-05  alpha:  6.824e-01  linmin:  8.374e-05  t[s]:   4104.89
	FillingsUpdate:  mu: -0.080029491  nElectrons: 224.000000  magneticMoment: [ Abs: 0.29058  Tot: -0.14969 ]
	SubspaceRotationAdjust: set factor to 0.841
ElecMinimize: Iter:   2  G: -358.780797420953604  |grad|_K:  3.563e-05  alpha:  1.425e-01  linmin: -1.316e-03  t[s]:   4215.90
	FillingsUpdate:  mu: -0.097862916  nElectrons: 224.000000  magneticMoment: [ Abs: 0.34753  Tot: -0.22555 ]
	SubspaceRotationAdjust: set factor to 0.69
ElecMinimize: Iter:   3  G: -358.926830086448263  |grad|_K:  3.099e-05  alpha:  4.043e-01  linmin:  7.878e-05  t[s]:   4327.01
	FillingsUpdate:  mu: -0.111096763  nElectrons: 224.000000  magneticMoment: [ Abs: 0.27150  Tot: -0.17111 ]
	SubspaceRotationAdjust: set factor to 0.689
ElecMinimize: Iter:   4  G: -358.961566514348476  |grad|_K:  1.843e-05  alpha:  2.078e-01  linmin:  5.338e-05  t[s]:   4438.00
	FillingsUpdate:  mu: -0.115249550  nElectrons: 224.000000  magneticMoment: [ Abs: 0.16217  Tot: -0.02765 ]
	SubspaceRotationAdjust: set factor to 0.734
ElecMinimize: Iter:   5  G: -358.988140844417501  |grad|_K:  1.502e-05  alpha:  3.738e-01  linmin: -1.683e-04  t[s]:   4548.94
	FillingsUpdate:  mu: -0.103842128  nElectrons: 224.000000  magneticMoment: [ Abs: 0.18499  Tot: -0.06308 ]
	SubspaceRotationAdjust: set factor to 0.602
ElecMinimize: Iter:   6  G: -359.002267947930818  |grad|_K:  8.235e-06  alpha:  2.702e-01  linmin:  3.724e-05  t[s]:   4660.07
	FillingsUpdate:  mu: -0.103589049  nElectrons: 224.000000  magneticMoment: [ Abs: 0.16826  Tot: -0.06348 ]
	SubspaceRotationAdjust: set factor to 0.663
ElecMinimize: Iter:   7  G: -359.008716398897661  |grad|_K:  6.832e-06  alpha:  4.564e-01  linmin:  4.265e-05  t[s]:   4770.87
	FillingsUpdate:  mu: -0.101327283  nElectrons: 224.000000  magneticMoment: [ Abs: 0.12801  Tot: -0.03466 ]
	SubspaceRotationAdjust: set factor to 0.567
ElecMinimize: Iter:   8  G: -359.011529566083766  |grad|_K:  4.623e-06  alpha:  2.936e-01  linmin:  3.200e-06  t[s]:   4881.46
	FillingsUpdate:  mu: -0.105959849  nElectrons: 224.000000  magneticMoment: [ Abs: 0.11701  Tot: -0.03941 ]
	SubspaceRotationAdjust: set factor to 0.625
ElecMinimize: Iter:   9  G: -359.013189612883536  |grad|_K:  2.834e-06  alpha:  3.710e-01  linmin:  2.983e-05  t[s]:   4992.25
	FillingsUpdate:  mu: -0.104983900  nElectrons: 224.000000  magneticMoment: [ Abs: 0.10552  Tot: -0.03304 ]
	SubspaceRotationAdjust: set factor to 0.561
ElecMinimize: Iter:  10  G: -359.013734233682953  |grad|_K:  2.050e-06  alpha:  3.255e-01  linmin:  5.585e-06  t[s]:   5103.20
	FillingsUpdate:  mu: -0.103097326  nElectrons: 224.000000  magneticMoment: [ Abs: 0.08642  Tot: -0.02303 ]
	SubspaceRotationAdjust: set factor to 0.546
ElecMinimize: Iter:  11  G: -359.014129442461524  |grad|_K:  1.609e-06  alpha:  4.460e-01  linmin: -3.297e-05  t[s]:   5214.11
	FillingsUpdate:  mu: -0.105456558  nElectrons: 224.000000  magneticMoment: [ Abs: 0.08009  Tot: -0.02594 ]
	SubspaceRotationAdjust: set factor to 0.515
ElecMinimize: Iter:  12  G: -359.014328567262169  |grad|_K:  1.129e-06  alpha:  3.589e-01  linmin:  6.737e-06  t[s]:   5324.97
	FillingsUpdate:  mu: -0.105835592  nElectrons: 224.000000  magneticMoment: [ Abs: 0.07271  Tot: -0.02621 ]
	SubspaceRotationAdjust: set factor to 0.533
ElecMinimize: Iter:  13  G: -359.014447268524350  |grad|_K:  8.712e-07  alpha:  4.445e-01  linmin:  7.042e-06  t[s]:   5435.58
	FillingsUpdate:  mu: -0.104399196  nElectrons: 224.000000  magneticMoment: [ Abs: 0.06298  Tot: -0.02152 ]
	SubspaceRotationAdjust: set factor to 0.467
ElecMinimize: Iter:  14  G: -359.014509444331395  |grad|_K:  7.147e-07  alpha:  3.919e-01  linmin: -8.225e-05  t[s]:   5546.40
	FillingsUpdate:  mu: -0.104793738  nElectrons: 224.000000  magneticMoment: [ Abs: 0.05556  Tot: -0.01995 ]
	SubspaceRotationAdjust: set factor to 0.56
ElecMinimize: Iter:  15  G: -359.014554909074377  |grad|_K:  4.500e-07  alpha:  4.201e-01  linmin:  4.979e-07  t[s]:   5656.96
	FillingsUpdate:  mu: -0.105658228  nElectrons: 224.000000  magneticMoment: [ Abs: 0.05149  Tot: -0.01992 ]
	SubspaceRotationAdjust: set factor to 0.49
ElecMinimize: Iter:  16  G: -359.014574640178012  |grad|_K:  4.145e-07  alpha:  4.640e-01  linmin:  9.853e-06  t[s]:   5767.52
	FillingsUpdate:  mu: -0.105308688  nElectrons: 224.000000  magneticMoment: [ Abs: 0.04543  Tot: -0.01763 ]
	SubspaceRotationAdjust: set factor to 0.512
ElecMinimize: Iter:  17  G: -359.014588894078656  |grad|_K:  2.539e-07  alpha:  3.967e-01  linmin: -3.780e-06  t[s]:   5878.74
	FillingsUpdate:  mu: -0.105100588  nElectrons: 224.000000  magneticMoment: [ Abs: 0.04105  Tot: -0.01607 ]
	SubspaceRotationAdjust: set factor to 0.511
ElecMinimize: Iter:  18  G: -359.014595707907802  |grad|_K:  2.183e-07  alpha:  5.020e-01  linmin: -1.912e-06  t[s]:   5989.34
	FillingsUpdate:  mu: -0.105399711  nElectrons: 224.000000  magneticMoment: [ Abs: 0.03740  Tot: -0.01514 ]
	SubspaceRotationAdjust: set factor to 0.464
ElecMinimize: Iter:  19  G: -359.014600074025964  |grad|_K:  1.683e-07  alpha:  4.352e-01  linmin:  6.196e-06  t[s]:   6100.06
	FillingsUpdate:  mu: -0.105318507  nElectrons: 224.000000  magneticMoment: [ Abs: 0.03352  Tot: -0.01360 ]
	SubspaceRotationAdjust: set factor to 0.504
ElecMinimize: Iter:  20  G: -359.014602727450892  |grad|_K:  1.166e-07  alpha:  4.468e-01  linmin: -7.124e-06  t[s]:   6210.79
	FillingsUpdate:  mu: -0.105191630  nElectrons: 224.000000  magneticMoment: [ Abs: 0.03043  Tot: -0.01234 ]
	SubspaceRotationAdjust: set factor to 0.493
ElecMinimize: Iter:  21  G: -359.014604080873823  |grad|_K:  9.900e-08  alpha:  4.727e-01  linmin: -1.833e-05  t[s]:   6321.49
	FillingsUpdate:  mu: -0.105312424  nElectrons: 224.000000  magneticMoment: [ Abs: 0.02730  Tot: -0.01124 ]
	SubspaceRotationAdjust: set factor to 0.472
ElecMinimize: Iter:  22  G: -359.014605092090221  |grad|_K:  7.723e-08  alpha:  4.902e-01  linmin:  8.640e-06  t[s]:   6432.32
	FillingsUpdate:  mu: -0.105310947  nElectrons: 224.000000  magneticMoment: [ Abs: 0.02457  Tot: -0.01016 ]
	SubspaceRotationAdjust: set factor to 0.517
ElecMinimize: Iter:  23  G: -359.014605661277926  |grad|_K:  5.935e-08  alpha:  4.554e-01  linmin: -1.251e-06  t[s]:   6543.33
	FillingsUpdate:  mu: -0.105245389  nElectrons: 224.000000  magneticMoment: [ Abs: 0.02195  Tot: -0.00909 ]
	SubspaceRotationAdjust: set factor to 0.504
ElecMinimize: Iter:  24  G: -359.014606031579660  |grad|_K:  4.848e-08  alpha:  5.000e-01  linmin: -4.019e-06  t[s]:   6654.08
	FillingsUpdate:  mu: -0.105300856  nElectrons: 224.000000  magneticMoment: [ Abs: 0.01958  Tot: -0.00816 ]
	SubspaceRotationAdjust: set factor to 0.53
ElecMinimize: Iter:  25  G: -359.014606270992886  |grad|_K:  4.050e-08  alpha:  4.837e-01  linmin:  4.240e-06  t[s]:   6764.98
	FillingsUpdate:  mu: -0.105318138  nElectrons: 224.000000  magneticMoment: [ Abs: 0.01713  Tot: -0.00718 ]
	SubspaceRotationAdjust: set factor to 0.547
ElecMinimize: Iter:  26  G: -359.014606445161348  |grad|_K:  3.411e-08  alpha:  5.060e-01  linmin: -3.248e-06  t[s]:   6876.00
	FillingsUpdate:  mu: -0.105279944  nElectrons: 224.000000  magneticMoment: [ Abs: 0.01471  Tot: -0.00618 ]
	SubspaceRotationAdjust: set factor to 0.581
ElecMinimize: Iter:  27  G: -359.014606571729928  |grad|_K:  2.927e-08  alpha:  5.170e-01  linmin: -7.954e-06  t[s]:   6987.17
	FillingsUpdate:  mu: -0.105298189  nElectrons: 224.000000  magneticMoment: [ Abs: 0.01251  Tot: -0.00528 ]
	SubspaceRotationAdjust: set factor to 0.594
ElecMinimize: Iter:  28  G: -359.014606660386733  |grad|_K:  2.568e-08  alpha:  4.916e-01  linmin:  1.030e-05  t[s]:   7098.17
	FillingsUpdate:  mu: -0.105303802  nElectrons: 224.000000  magneticMoment: [ Abs: 0.01037  Tot: -0.00439 ]
	SubspaceRotationAdjust: set factor to 0.585
ElecMinimize: Iter:  29  G: -359.014606727092144  |grad|_K:  2.253e-08  alpha:  4.823e-01  linmin: -4.099e-06  t[s]:   7209.08
ElecMinimize: Converged (|Delta G|<1.000000e-07 for 2 iters).
Setting wave functions to eigenvectors of Hamiltonian
Converging empty states (this may take a while): |deigs|: 7.640e-03
Vacuum energy after initial minimize, F = -359.014606727092144

Shifting auxilliary hamiltonian by -0.021896 to set nElectrons=224.000000

-------- Electronic minimization -----------
	Linear fluid (dielectric constant: 78.4, screening length: 8.12261 Bohr) occupying 0.723081 of unit cell:	Completed after 22 iterations at t[s]:   7788.08
	FillingsUpdate:  mu: -0.127200000  nElectrons: 224.000000  magneticMoment: [ Abs: 0.00906  Tot: -0.00381 ]
ElecMinimize: Iter:   0  G: -359.018640928034074  |grad|_K:  1.839e-05  alpha:  1.000e+00
	Linear fluid (dielectric constant: 78.4, screening length: 8.12261 Bohr) occupying 0.752098 of unit cell:	Completed after 27 iterations at t[s]:   7900.27
	Linear fluid (dielectric constant: 78.4, screening length: 8.12261 Bohr) occupying 0.724722 of unit cell:	Completed after 22 iterations at t[s]:   7949.37
	FillingsUpdate:  mu: -0.127200000  nElectrons: 224.278068  magneticMoment: [ Abs: 0.00435  Tot: -0.00045 ]
	SubspaceRotationAdjust: set factor to 0.328
ElecMinimize: Iter:   1  G: -359.030407883772227  |grad|_K:  9.670e-06  alpha:  1.606e-01  linmin: -1.281e-02  t[s]:   7998.28
	Linear fluid (dielectric constant: 78.4, screening length: 8.12261 Bohr) occupying 0.725722 of unit cell:	Completed after 14 iterations at t[s]:   8048.32
	Linear fluid (dielectric constant: 78.4, screening length: 8.12261 Bohr) occupying 0.725793 of unit cell:	Completed after 3 iterations at t[s]:   8085.26
	FillingsUpdate:  mu: -0.127200000  nElectrons: 224.432754  magneticMoment: [ Abs: 0.00356  Tot: +0.00000 ]
	SubspaceRotationAdjust: set factor to 0.384
ElecMinimize: Iter:   2  G: -359.035502542652182  |grad|_K:  4.133e-06  alpha:  1.796e-01  linmin: -3.560e-03  t[s]:   8133.65
	Linear fluid (dielectric constant: 78.4, screening length: 8.12261 Bohr) occupying 0.726084 of unit cell:	Completed after 11 iterations at t[s]:   8181.28
ElecMinimize: 	Predicted alpha/alphaT>3.000000, increasing alphaT to 5.389319e-01.
	Linear fluid (dielectric constant: 78.4, screening length: 8.12261 Bohr) occupying 0.726605 of unit cell:	Completed after 14 iterations at t[s]:   8225.18
	Linear fluid (dielectric constant: 78.4, screening length: 8.12261 Bohr) occupying 0.726917 of unit cell:	Completed after 12 iterations at t[s]:   8268.02
	FillingsUpdate:  mu: -0.127200000  nElectrons: 224.449139  magneticMoment: [ Abs: 0.00229  Tot: +0.00001 ]
	SubspaceRotationAdjust: set factor to 0.34
ElecMinimize: Iter:   3  G: -359.039433390967645  |grad|_K:  3.040e-06  alpha:  7.491e-01  linmin: -1.451e-03  t[s]:   8317.83
	Linear fluid (dielectric constant: 78.4, screening length: 8.12261 Bohr) occupying 0.755170 of unit cell:	Completed after 27 iterations at t[s]:   8376.59
	Linear fluid (dielectric constant: 78.4, screening length: 8.12261 Bohr) occupying 0.726923 of unit cell:	Completed after 22 iterations at t[s]:   8425.98
	FillingsUpdate:  mu: -0.127200000  nElectrons: 224.449339  magneticMoment: [ Abs: 0.00229  Tot: +0.00001 ]
	SubspaceRotationAdjust: set factor to 0.316
ElecMinimize: Iter:   4  G: -359.039451505158866  |grad|_K:  2.935e-06  alpha:  3.556e-03  linmin: -2.882e-03  t[s]:   8475.26
	Linear fluid (dielectric constant: 78.4, screening length: 8.12261 Bohr) occupying 0.726931 of unit cell:	Completed after 2 iterations at t[s]:   8517.85
ElecMinimize: 	Wrong curvature in test step, increasing alphaT to 1.066677e-02.
	Linear fluid (dielectric constant: 78.4, screening length: 8.12261 Bohr) occupying 0.726931 of unit cell:	Completed after 0 iterations at t[s]:   8542.57
	FillingsUpdate:  mu: -0.127200000  nElectrons: 224.449651  magneticMoment: [ Abs: 0.00228  Tot: +0.00002 ]
	SubspaceRotationAdjust: set factor to 0.3
ElecMinimize: Iter:   5  G: -359.039481384446617  |grad|_K:  2.865e-06  alpha: -1.155e+00  linmin: -3.417e-03  t[s]:   8591.57
	Linear fluid (dielectric constant: 78.4, screening length: 8.12261 Bohr) occupying 0.775590 of unit cell:	Completed after 29 iterations at t[s]:   8651.27
	Linear fluid (dielectric constant: 78.4, screening length: 8.12261 Bohr) occupying 0.726951 of unit cell:	Completed after 23 iterations at t[s]:   8697.36
	FillingsUpdate:  mu: -0.127200000  nElectrons: 224.450540  magneticMoment: [ Abs: 0.00227  Tot: +0.00002 ]
	SubspaceRotationAdjust: set factor to 0.282
ElecMinimize: Iter:   6  G: -359.039560812733271  |grad|_K:  2.775e-06  alpha:  6.999e-03  linmin: -3.877e-03  t[s]:   8742.73
	Linear fluid (dielectric constant: 78.4, screening length: 8.12261 Bohr) occupying 0.726977 of unit cell:	Completed after 3 iterations at t[s]:   8785.26
ElecMinimize: 	Wrong curvature in test step, increasing alphaT to 2.099619e-02.
	Linear fluid (dielectric constant: 78.4, screening length: 8.12261 Bohr) occupying 0.726977 of unit cell:	Completed after 0 iterations at t[s]:   8809.90
	FillingsUpdate:  mu: -0.127200000  nElectrons: 224.451797  magneticMoment: [ Abs: 0.00225  Tot: +0.00002 ]
	SubspaceRotationAdjust: set factor to 0.259
ElecMinimize: Iter:   7  G: -359.039659734717191  |grad|_K:  2.670e-06  alpha: -8.536e-01  linmin: -4.339e-03  t[s]:   8858.67
	Linear fluid (dielectric constant: 78.4, screening length: 8.12261 Bohr) occupying 0.781016 of unit cell:	Completed after 32 iterations at t[s]:   8920.08
	Linear fluid (dielectric constant: 78.4, screening length: 8.12261 Bohr) occupying 0.727005 of unit cell:	Completed after 23 iterations at t[s]:   8970.17
	FillingsUpdate:  mu: -0.127200000  nElectrons: 224.453462  magneticMoment: [ Abs: 0.00223  Tot: +0.00003 ]
	SubspaceRotationAdjust: set factor to 0.234
ElecMinimize: Iter:   8  G: -359.039767163183626  |grad|_K:  2.551e-06  alpha:  6.789e-03  linmin: -4.860e-03  t[s]:   9018.81
	Linear fluid (dielectric constant: 78.4, screening length: 8.12261 Bohr) occupying 0.727038 of unit cell:	Completed after 3 iterations at t[s]:   9061.54
ElecMinimize: 	Wrong curvature in test step, increasing alphaT to 2.036812e-02.
	Linear fluid (dielectric constant: 78.4, screening length: 8.12261 Bohr) occupying 0.727038 of unit cell:	Completed after 0 iterations at t[s]:   9086.24
	FillingsUpdate:  mu: -0.127200000  nElectrons: 224.455666  magneticMoment: [ Abs: 0.00220  Tot: +0.00004 ]
	SubspaceRotationAdjust: set factor to 0.207
ElecMinimize: Iter:   9  G: -359.039888216758584  |grad|_K:  2.422e-06  alpha: -3.781e-01  linmin: -5.499e-03  t[s]:   9134.76
	Linear fluid (dielectric constant: 78.4, screening length: 8.12261 Bohr) occupying 0.787171 of unit cell:	Completed after 32 iterations at t[s]:   9195.65
	Linear fluid (dielectric constant: 78.4, screening length: 8.12261 Bohr) occupying 0.727064 of unit cell:	Completed after 24 iterations at t[s]:   9246.46
	FillingsUpdate:  mu: -0.127200000  nElectrons: 224.457727  magneticMoment: [ Abs: 0.00219  Tot: +0.00005 ]
	SubspaceRotationAdjust: set factor to 0.183
ElecMinimize: Iter:  10  G: -359.039980121668691  |grad|_K:  2.299e-06  alpha:  5.080e-03  linmin: -6.082e-03  t[s]:   9295.22
	Linear fluid (dielectric constant: 78.4, screening length: 8.12261 Bohr) occupying 0.727095 of unit cell:	Completed after 3 iterations at t[s]:   9338.05
ElecMinimize: 	Wrong curvature in test step, increasing alphaT to 1.523881e-02.
	Linear fluid (dielectric constant: 78.4, screening length: 8.12261 Bohr) occupying 0.727095 of unit cell:	Completed after 0 iterations at t[s]:   9362.34
	FillingsUpdate:  mu: -0.127200000  nElectrons: 224.460187  magneticMoment: [ Abs: 0.00217  Tot: +0.00005 ]
	SubspaceRotationAdjust: set factor to 0.162
ElecMinimize: Iter:  11  G: -359.040079583381157  |grad|_K:  2.185e-06  alpha: -2.531e-01  linmin: -6.757e-03  t[s]:   9411.37
	Linear fluid (dielectric constant: 78.4, screening length: 8.12261 Bohr) occupying 0.787121 of unit cell:	Completed after 32 iterations at t[s]:   9472.99
	Linear fluid (dielectric constant: 78.4, screening length: 8.12261 Bohr) occupying 0.727129 of unit cell:	Completed after 24 iterations at t[s]:   9523.33
	FillingsUpdate:  mu: -0.127200000  nElectrons: 224.463348  magneticMoment: [ Abs: 0.00215  Tot: +0.00007 ]
	SubspaceRotationAdjust: set factor to 0.143
ElecMinimize: Iter:  12  G: -359.040185986329050  |grad|_K:  2.074e-06  alpha:  5.504e-03  linmin: -7.544e-03  t[s]:   9572.79
	Linear fluid (dielectric constant: 78.4, screening length: 8.12261 Bohr) occupying 0.727168 of unit cell:	Completed after 6 iterations at t[s]:   9617.72
ElecMinimize: 	Wrong curvature in test step, increasing alphaT to 1.651095e-02.
	Linear fluid (dielectric constant: 78.4, screening length: 8.12261 Bohr) occupying 0.727168 of unit cell:	Completed after 0 iterations at t[s]:   9642.04
	FillingsUpdate:  mu: -0.127200000  nElectrons: 224.467049  magneticMoment: [ Abs: 0.00213  Tot: +0.00008 ]
	SubspaceRotationAdjust: set factor to 0.128
ElecMinimize: Iter:  13  G: -359.040297885454208  |grad|_K:  1.971e-06  alpha: -2.575e-01  linmin: -8.342e-03  t[s]:   9691.62
	Linear fluid (dielectric constant: 78.4, screening length: 8.12261 Bohr) occupying 0.783962 of unit cell:	Completed after 32 iterations at t[s]:   9753.46
	Linear fluid (dielectric constant: 78.4, screening length: 8.12261 Bohr) occupying 0.727222 of unit cell:	Completed after 23 iterations at t[s]:   9803.45
	FillingsUpdate:  mu: -0.127200000  nElectrons: 224.472843  magneticMoment: [ Abs: 0.00211  Tot: +0.00010 ]
	SubspaceRotationAdjust: set factor to 0.115
ElecMinimize: Iter:  14  G: -359.040441867082791  |grad|_K:  1.873e-06  alpha:  7.247e-03  linmin: -9.182e-03  t[s]:   9852.40
	Linear fluid (dielectric constant: 78.4, screening length: 8.12261 Bohr) occupying 0.727286 of unit cell:	Completed after 8 iterations at t[s]:   9898.83
ElecMinimize: 	Wrong curvature in test step, increasing alphaT to 2.174130e-02.
	Linear fluid (dielectric constant: 78.4, screening length: 8.12261 Bohr) occupying 0.727286 of unit cell:	Completed after 0 iterations at t[s]:   9923.64
	FillingsUpdate:  mu: -0.127200000  nElectrons: 224.479777  magneticMoment: [ Abs: 0.00209  Tot: +0.00013 ]
	SubspaceRotationAdjust: set factor to 0.109
ElecMinimize: Iter:  15  G: -359.040587892900021  |grad|_K:  1.800e-06  alpha: -9.440e-01  linmin: -9.516e-03  t[s]:   9972.68
	Linear fluid (dielectric constant: 78.4, screening length: 8.12261 Bohr) occupying 0.779545 of unit cell:	Completed after 31 iterations at t[s]:  10033.61
	Linear fluid (dielectric constant: 78.4, screening length: 8.12261 Bohr) occupying 0.727386 of unit cell:	Completed after 23 iterations at t[s]:  10083.88
	FillingsUpdate:  mu: -0.127200000  nElectrons: 224.491622  magneticMoment: [ Abs: 0.00206  Tot: +0.00018 ]
	SubspaceRotationAdjust: set factor to 0.115
ElecMinimize: Iter:  16  G: -359.040778783974872  |grad|_K:  1.772e-06  alpha:  9.915e-03  linmin: -8.683e-03  t[s]:  10133.21
	Linear fluid (dielectric constant: 78.4, screening length: 8.12261 Bohr) occupying 0.727517 of unit cell:	Completed after 11 iterations at t[s]:  10181.04
ElecMinimize: 	Predicted alpha/alphaT>3.000000, increasing alphaT to 2.974496e-02.
	Linear fluid (dielectric constant: 78.4, screening length: 8.12261 Bohr) occupying 0.727906 of unit cell:	Completed after 15 iterations at t[s]:  10225.96
	Linear fluid (dielectric constant: 78.4, screening length: 8.12261 Bohr) occupying 0.727917 of unit cell:	Completed after 3 iterations at t[s]:  10262.75
	FillingsUpdate:  mu: -0.127200000  nElectrons: 224.557671  magneticMoment: [ Abs: 0.00205  Tot: +0.00044 ]
	SubspaceRotationAdjust: set factor to 0.115
ElecMinimize: Iter:  17  G: -359.041071613386066  |grad|_K:  2.950e-06  alpha:  3.019e-02  linmin:  2.959e-03  t[s]:  10311.68
ElecMinimize: 	Bad step direction: g.d > 0.
ElecMinimize: 	Undoing step.
	Linear fluid (dielectric constant: 78.4, screening length: 8.12261 Bohr) occupying 0.727917 of unit cell:	Completed after 0 iterations at t[s]:  10352.09
ElecMinimize: 	Step failed: resetting search direction.
	FillingsUpdate:  mu: -0.127200000  nElectrons: 224.557671  magneticMoment: [ Abs: 0.00205  Tot: +0.00044 ]
	SubspaceRotationAdjust: set factor to 0.137
ElecMinimize: Iter:  18  G: -359.041071613384190  |grad|_K:  2.951e-06  alpha:  0.000e+00
	Linear fluid (dielectric constant: 78.4, screening length: 8.12261 Bohr) occupying 0.727906 of unit cell:	Completed after 4 iterations at t[s]:  10444.90
ElecMinimize: 	Predicted alpha/alphaT>3.000000, increasing alphaT to 9.056311e-02.
	Linear fluid (dielectric constant: 78.4, screening length: 8.12261 Bohr) occupying 0.727885 of unit cell:	Completed after 7 iterations at t[s]:  10484.83
ElecMinimize: 	Predicted alpha/alphaT>3.000000, increasing alphaT to 2.716893e-01.
	Linear fluid (dielectric constant: 78.4, screening length: 8.12261 Bohr) occupying 0.727829 of unit cell:	Completed after 11 iterations at t[s]:  10527.34
	Linear fluid (dielectric constant: 78.4, screening length: 8.12261 Bohr) occupying 0.727813 of unit cell:	Completed after 7 iterations at t[s]:  10567.39
	FillingsUpdate:  mu: -0.127200000  nElectrons: 224.544186  magneticMoment: [ Abs: 0.00191  Tot: +0.00038 ]
	SubspaceRotationAdjust: set factor to 0.116
ElecMinimize: Iter:  19  G: -359.041691537292536  |grad|_K:  1.854e-06  alpha:  3.350e-01  linmin: -1.432e-03  t[s]:  10616.42
	Linear fluid (dielectric constant: 78.4, screening length: 8.12261 Bohr) occupying 0.728022 of unit cell:	Completed after 10 iterations at t[s]:  10664.24
ElecMinimize: 	Predicted alpha/alphaT>3.000000, increasing alphaT to 1.005127e+00.
	Linear fluid (dielectric constant: 78.4, screening length: 8.12261 Bohr) occupying 0.728601 of unit cell:	Completed after 12 iterations at t[s]:  10707.14
ElecMinimize: 	Predicted alpha/alphaT>3.000000, increasing alphaT to 3.015382e+00.
	Linear fluid (dielectric constant: 78.4, screening length: 8.12261 Bohr) occupying 0.733075 of unit cell:	Completed after 18 iterations at t[s]:  10754.35
	Linear fluid (dielectric constant: 78.4, screening length: 8.12261 Bohr) occupying 0.728588 of unit cell:	Completed after 18 iterations at t[s]:  10801.26
	FillingsUpdate:  mu: -0.127200000  nElectrons: 224.653196  magneticMoment: [ Abs: 0.00179  Tot: +0.00078 ]
	SubspaceRotationAdjust: set factor to 0.0936
ElecMinimize: Iter:  20  G: -359.043001695004079  |grad|_K:  1.215e-06  alpha:  9.930e-01  linmin: -1.035e-02  t[s]:  10850.15
	Linear fluid (dielectric constant: 78.4, screening length: 8.12261 Bohr) occupying 0.729692 of unit cell:	Completed after 16 iterations at t[s]:  10902.10
	Linear fluid (dielectric constant: 78.4, screening length: 8.12261 Bohr) occupying 0.729819 of unit cell:	Completed after 10 iterations at t[s]:  10943.92
	FillingsUpdate:  mu: -0.127200000  nElectrons: 224.826192  magneticMoment: [ Abs: 0.00205  Tot: +0.00143 ]
	SubspaceRotationAdjust: set factor to 0.0577
	SubspaceRotationAdjust: resetting CG because factor has changed by 0.098736
	Linear fluid (dielectric constant: 78.4, screening length: 8.12261 Bohr) occupying 0.729819 of unit cell:	Completed after 0 iterations at t[s]:  11014.61
ElecMinimize: 	State modified externally: resetting search direction.
ElecMinimize: Iter:  21  G: -359.043551115454079  |grad|_K:  2.063e-06  alpha:  1.079e+00
	Linear fluid (dielectric constant: 78.4, screening length: 8.12261 Bohr) occupying 0.728829 of unit cell:	Completed after 17 iterations at t[s]:  11116.36
	Linear fluid (dielectric constant: 78.4, screening length: 8.12261 Bohr) occupying 0.729405 of unit cell:	Completed after 16 iterations at t[s]:  11162.40
	FillingsUpdate:  mu: -0.127200000  nElectrons: 224.786278  magneticMoment: [ Abs: 0.00193  Tot: +0.00131 ]
	SubspaceRotationAdjust: set factor to 0.0985
ElecMinimize: Iter:  22  G: -359.043852103888469  |grad|_K:  9.459e-07  alpha:  3.973e-01  linmin:  7.595e-03  t[s]:  11211.59
	Linear fluid (dielectric constant: 78.4, screening length: 8.12261 Bohr) occupying 0.729352 of unit cell:	Completed after 7 iterations at t[s]:  11256.85
	Linear fluid (dielectric constant: 78.4, screening length: 8.12261 Bohr) occupying 0.729329 of unit cell:	Completed after 3 iterations at t[s]:  11294.49
	FillingsUpdate:  mu: -0.127200000  nElectrons: 224.784967  magneticMoment: [ Abs: 0.00198  Tot: +0.00139 ]
	SubspaceRotationAdjust: set factor to 0.112
ElecMinimize: Iter:  23  G: -359.043948575126592  |grad|_K:  7.922e-07  alpha:  5.718e-01  linmin: -9.888e-06  t[s]:  11343.61
	Linear fluid (dielectric constant: 78.4, screening length: 8.12261 Bohr) occupying 0.729350 of unit cell:	Completed after 4 iterations at t[s]:  11387.17
	Linear fluid (dielectric constant: 78.4, screening length: 8.12261 Bohr) occupying 0.729400 of unit cell:	Completed after 7 iterations at t[s]:  11427.20
	FillingsUpdate:  mu: -0.127200000  nElectrons: 224.816524  magneticMoment: [ Abs: 0.00244  Tot: +0.00202 ]
	SubspaceRotationAdjust: set factor to 0.144
ElecMinimize: Iter:  24  G: -359.044169109984296  |grad|_K:  8.378e-07  alpha:  1.672e+00  linmin:  2.474e-05  t[s]:  11476.50
	Linear fluid (dielectric constant: 78.4, screening length: 8.12261 Bohr) occupying 0.729792 of unit cell:	Completed after 12 iterations at t[s]:  11525.28
	Linear fluid (dielectric constant: 78.4, screening length: 8.12261 Bohr) occupying 0.729612 of unit cell:	Completed after 10 iterations at t[s]:  11567.27
	FillingsUpdate:  mu: -0.127200000  nElectrons: 224.853290  magneticMoment: [ Abs: 0.00309  Tot: +0.00279 ]
	SubspaceRotationAdjust: set factor to 0.137
ElecMinimize: Iter:  25  G: -359.044309111787356  |grad|_K:  9.130e-07  alpha:  9.626e-01  linmin:  1.620e-05  t[s]:  11616.58
	Linear fluid (dielectric constant: 78.4, screening length: 8.12261 Bohr) occupying 0.730644 of unit cell:	Completed after 16 iterations at t[s]:  11667.98
	Linear fluid (dielectric constant: 78.4, screening length: 8.12261 Bohr) occupying 0.729914 of unit cell:	Completed after 14 iterations at t[s]:  11712.53
	FillingsUpdate:  mu: -0.127200000  nElectrons: 224.888645  magneticMoment: [ Abs: 0.00375  Tot: +0.00349 ]
	SubspaceRotationAdjust: set factor to 0.113
ElecMinimize: Iter:  26  G: -359.044369032759619  |grad|_K:  5.662e-07  alpha:  3.082e-01  linmin: -4.648e-04  t[s]:  11761.58
	Linear fluid (dielectric constant: 78.4, screening length: 8.12261 Bohr) occupying 0.729991 of unit cell:	Completed after 3 iterations at t[s]:  11804.84
	Linear fluid (dielectric constant: 78.4, screening length: 8.12261 Bohr) occupying 0.730076 of unit cell:	Completed after 3 iterations at t[s]:  11842.66
	FillingsUpdate:  mu: -0.127200000  nElectrons: 224.901306  magneticMoment: [ Abs: 0.00479  Tot: +0.00454 ]
	SubspaceRotationAdjust: set factor to 0.143
ElecMinimize: Iter:  27  G: -359.044416267164024  |grad|_K:  4.479e-07  alpha:  6.476e-01  linmin:  5.478e-06  t[s]:  11892.16
	Linear fluid (dielectric constant: 78.4, screening length: 8.12261 Bohr) occupying 0.730130 of unit cell:	Completed after 6 iterations at t[s]:  11937.50
	Linear fluid (dielectric constant: 78.4, screening length: 8.12261 Bohr) occupying 0.730121 of unit cell:	Completed after 2 iterations at t[s]:  11974.21
	FillingsUpdate:  mu: -0.127200000  nElectrons: 224.900311  magneticMoment: [ Abs: 0.00585  Tot: +0.00558 ]
	SubspaceRotationAdjust: set factor to 0.154
ElecMinimize: Iter:  28  G: -359.044438807436791  |grad|_K:  3.986e-07  alpha:  5.361e-01  linmin:  7.587e-06  t[s]:  12023.87
	Linear fluid (dielectric constant: 78.4, screening length: 8.12261 Bohr) occupying 0.730244 of unit cell:	Completed after 7 iterations at t[s]:  12069.74
	Linear fluid (dielectric constant: 78.4, screening length: 8.12261 Bohr) occupying 0.730208 of unit cell:	Completed after 3 iterations at t[s]:  12107.27
	FillingsUpdate:  mu: -0.127200000  nElectrons: 224.904099  magneticMoment: [ Abs: 0.00720  Tot: +0.00690 ]
	SubspaceRotationAdjust: set factor to 0.131
ElecMinimize: Iter:  29  G: -359.044451695298903  |grad|_K:  3.291e-07  alpha:  3.840e-01  linmin:  1.967e-05  t[s]:  12156.69
	Linear fluid (dielectric constant: 78.4, screening length: 8.12261 Bohr) occupying 0.730181 of unit cell:	Completed after 7 iterations at t[s]:  12200.64
	Linear fluid (dielectric constant: 78.4, screening length: 8.12261 Bohr) occupying 0.730172 of unit cell:	Completed after 3 iterations at t[s]:  12236.51
	FillingsUpdate:  mu: -0.127200000  nElectrons: 224.893058  magneticMoment: [ Abs: 0.00934  Tot: +0.00898 ]
	SubspaceRotationAdjust: set factor to 0.16
ElecMinimize: Iter:  30  G: -359.044463294584261  |grad|_K:  2.240e-07  alpha:  5.100e-01  linmin: -7.302e-05  t[s]:  12284.50
	Linear fluid (dielectric constant: 78.4, screening length: 8.12261 Bohr) occupying 0.730145 of unit cell:	Completed after 6 iterations at t[s]:  12328.27
	Linear fluid (dielectric constant: 78.4, screening length: 8.12261 Bohr) occupying 0.730142 of unit cell:	Completed after 0 iterations at t[s]:  12363.61
	FillingsUpdate:  mu: -0.127200000  nElectrons: 224.885026  magneticMoment: [ Abs: 0.01170  Tot: +0.01125 ]
	SubspaceRotationAdjust: set factor to 0.166
ElecMinimize: Iter:  31  G: -359.044469291705809  |grad|_K:  1.642e-07  alpha:  5.576e-01  linmin: -2.583e-04  t[s]:  12413.16
	Linear fluid (dielectric constant: 78.4, screening length: 8.12261 Bohr) occupying 0.730162 of unit cell:	Completed after 4 iterations at t[s]:  12457.28
	Linear fluid (dielectric constant: 78.4, screening length: 8.12261 Bohr) occupying 0.730158 of unit cell:	Completed after 2 iterations at t[s]:  12493.88
	FillingsUpdate:  mu: -0.127200000  nElectrons: 224.884431  magneticMoment: [ Abs: 0.01426  Tot: +0.01373 ]
	SubspaceRotationAdjust: set factor to 0.141
ElecMinimize: Iter:  32  G: -359.044471799630685  |grad|_K:  1.498e-07  alpha:  4.262e-01  linmin:  7.527e-05  t[s]:  12542.84
	Linear fluid (dielectric constant: 78.4, screening length: 8.12261 Bohr) occupying 0.730127 of unit cell:	Completed after 3 iterations at t[s]:  12586.27
	Linear fluid (dielectric constant: 78.4, screening length: 8.12261 Bohr) occupying 0.730131 of unit cell:	Completed after 0 iterations at t[s]:  12621.57
	FillingsUpdate:  mu: -0.127200000  nElectrons: 224.880102  magneticMoment: [ Abs: 0.01760  Tot: +0.01696 ]
	SubspaceRotationAdjust: set factor to 0.129
ElecMinimize: Iter:  33  G: -359.044473534214319  |grad|_K:  1.113e-07  alpha:  3.717e-01  linmin:  2.537e-04  t[s]:  12670.57
	Linear fluid (dielectric constant: 78.4, screening length: 8.12261 Bohr) occupying 0.730130 of unit cell:	Completed after 2 iterations at t[s]:  12713.69
	Linear fluid (dielectric constant: 78.4, screening length: 8.12261 Bohr) occupying 0.730129 of unit cell:	Completed after 1 iterations at t[s]:  12749.71
	FillingsUpdate:  mu: -0.127200000  nElectrons: 224.878690  magneticMoment: [ Abs: 0.02467  Tot: +0.02377 ]
	SubspaceRotationAdjust: set factor to 0.164
ElecMinimize: Iter:  34  G: -359.044475453674806  |grad|_K:  1.056e-07  alpha:  7.238e-01  linmin: -4.845e-04  t[s]:  12798.66
	Linear fluid (dielectric constant: 78.4, screening length: 8.12261 Bohr) occupying 0.730123 of unit cell:	Completed after 1 iterations at t[s]:  12840.59
	Linear fluid (dielectric constant: 78.4, screening length: 8.12261 Bohr) occupying 0.730119 of unit cell:	Completed after 2 iterations at t[s]:  12877.41
	FillingsUpdate:  mu: -0.127200000  nElectrons: 224.876766  magneticMoment: [ Abs: 0.05134  Tot: +0.04937 ]
	SubspaceRotationAdjust: set factor to 0.181
ElecMinimize: Iter:  35  G: -359.044480150039533  |grad|_K:  2.616e-07  alpha:  1.839e+00  linmin:  3.065e-06  t[s]:  12926.47
	Linear fluid (dielectric constant: 78.4, screening length: 8.12261 Bohr) occupying 0.730633 of unit cell:	Completed after 15 iterations at t[s]:  12977.43
	Linear fluid (dielectric constant: 78.4, screening length: 8.12261 Bohr) occupying 0.730126 of unit cell:	Completed after 15 iterations at t[s]:  13022.48
	FillingsUpdate:  mu: -0.127200000  nElectrons: 224.877264  magneticMoment: [ Abs: 0.06593  Tot: +0.06340 ]
	SubspaceRotationAdjust: set factor to 0.226
ElecMinimize: Iter:  36  G: -359.044484341516409  |grad|_K:  3.169e-07  alpha:  1.415e-01  linmin: -1.391e-03  t[s]:  13071.49
	Linear fluid (dielectric constant: 78.4, screening length: 8.12261 Bohr) occupying 0.730143 of unit cell:	Completed after 3 iterations at t[s]:  13114.83
ElecMinimize: 	Wrong curvature in test step, increasing alphaT to 4.243898e-01.
	Linear fluid (dielectric constant: 78.4, screening length: 8.12261 Bohr) occupying 0.730143 of unit cell:	Completed after 0 iterations at t[s]:  13139.57
	FillingsUpdate:  mu: -0.127200000  nElectrons: 224.879011  magneticMoment: [ Abs: 0.09000  Tot: +0.08655 ]
	SubspaceRotationAdjust: set factor to 0.191
ElecMinimize: Iter:  37  G: -359.044496785976662  |grad|_K:  3.932e-07  alpha: -2.155e+00  linmin: -3.170e-03  t[s]:  13188.58
	Linear fluid (dielectric constant: 78.4, screening length: 8.12261 Bohr) occupying 0.731253 of unit cell:	Completed after 17 iterations at t[s]:  13241.11
	Linear fluid (dielectric constant: 78.4, screening length: 8.12261 Bohr) occupying 0.730156 of unit cell:	Completed after 17 iterations at t[s]:  13287.37
	FillingsUpdate:  mu: -0.127200000  nElectrons: 224.880375  magneticMoment: [ Abs: 0.11001  Tot: +0.10584 ]
	SubspaceRotationAdjust: set factor to 0.142
ElecMinimize: Iter:  38  G: -359.044510570753289  |grad|_K:  4.425e-07  alpha:  6.968e-02  linmin: -4.978e-03  t[s]:  13336.35
	Linear fluid (dielectric constant: 78.4, screening length: 8.12261 Bohr) occupying 0.730173 of unit cell:	Completed after 3 iterations at t[s]:  13379.78
ElecMinimize: 	Predicted alpha/alphaT>3.000000, increasing alphaT to 2.090264e-01.
	Linear fluid (dielectric constant: 78.4, screening length: 8.12261 Bohr) occupying 0.730266 of unit cell:	Completed after 9 iterations at t[s]:  13420.80
	Linear fluid (dielectric constant: 78.4, screening length: 8.12261 Bohr) occupying 0.730547 of unit cell:	Completed after 14 iterations at t[s]:  13464.84
ElecMinimize: 	Step increased G by 5.314602e-05, reducing alpha to 4.247523e-02.
	Linear fluid (dielectric constant: 78.4, screening length: 8.12261 Bohr) occupying 0.730164 of unit cell:	Completed after 15 iterations at t[s]:  13556.22
	FillingsUpdate:  mu: -0.127200000  nElectrons: 224.881200  magneticMoment: [ Abs: 0.12634  Tot: +0.12153 ]
	SubspaceRotationAdjust: set factor to 0.111
ElecMinimize: Iter:  39  G: -359.044524512470900  |grad|_K:  4.373e-07  alpha:  4.248e-02  linmin: -6.472e-03  t[s]:  13605.20
	Linear fluid (dielectric constant: 78.4, screening length: 8.12261 Bohr) occupying 0.730171 of unit cell:	Completed after 2 iterations at t[s]:  13647.84
ElecMinimize: 	Predicted alpha/alphaT>3.000000, increasing alphaT to 1.274257e-01.
	Linear fluid (dielectric constant: 78.4, screening length: 8.12261 Bohr) occupying 0.730208 of unit cell:	Completed after 7 iterations at t[s]:  13687.57
ElecMinimize: 	Predicted alpha/alphaT>3.000000, increasing alphaT to 3.822771e-01.
	Linear fluid (dielectric constant: 78.4, screening length: 8.12261 Bohr) occupying 0.730485 of unit cell:	Completed after 13 iterations at t[s]:  13731.12
	Linear fluid (dielectric constant: 78.4, screening length: 8.12261 Bohr) occupying 0.730276 of unit cell:	Completed after 12 iterations at t[s]:  13774.31
	FillingsUpdate:  mu: -0.127200000  nElectrons: 224.892901  magneticMoment: [ Abs: 0.20646  Tot: +0.19809 ]
	SubspaceRotationAdjust: set factor to 0.0894
ElecMinimize: Iter:  40  G: -359.044589635596310  |grad|_K:  8.394e-07  alpha:  2.144e-01  linmin: -9.179e-04  t[s]:  13823.95
	Linear fluid (dielectric constant: 78.4, screening length: 8.12261 Bohr) occupying 0.731787 of unit cell:	Completed after 18 iterations at t[s]:  13876.67
	Linear fluid (dielectric constant: 78.4, screening length: 8.12261 Bohr) occupying 0.730296 of unit cell:	Completed after 17 iterations at t[s]:  13922.92
	FillingsUpdate:  mu: -0.127200000  nElectrons: 224.894789  magneticMoment: [ Abs: 0.21411  Tot: +0.20541 ]
	SubspaceRotationAdjust: set factor to 0.0766
ElecMinimize: Iter:  41  G: -359.044591912942280  |grad|_K:  8.616e-07  alpha:  5.855e-03  linmin: -9.992e-04  t[s]:  13972.12
	Linear fluid (dielectric constant: 78.4, screening length: 8.12261 Bohr) occupying 0.730314 of unit cell:	Completed after 3 iterations at t[s]:  14015.23
ElecMinimize: 	Predicted alpha/alphaT>3.000000, increasing alphaT to 1.756517e-02.
	Linear fluid (dielectric constant: 78.4, screening length: 8.12261 Bohr) occupying 0.730357 of unit cell:	Completed after 7 iterations at t[s]:  14055.14
	Linear fluid (dielectric constant: 78.4, screening length: 8.12261 Bohr) occupying 0.730354 of unit cell:	Completed after 0 iterations at t[s]:  14089.53
	FillingsUpdate:  mu: -0.127200000  nElectrons: 224.900732  magneticMoment: [ Abs: 0.23695  Tot: +0.22705 ]
	SubspaceRotationAdjust: set factor to 0.0655
ElecMinimize: Iter:  42  G: -359.044598289522696  |grad|_K:  1.020e-06  alpha:  1.681e-02  linmin:  1.332e-04  t[s]:  14139.09
	Linear fluid (dielectric constant: 78.4, screening length: 8.12261 Bohr) occupying 0.730452 of unit cell:	Completed after 10 iterations at t[s]:  14186.69
	Linear fluid (dielectric constant: 78.4, screening length: 8.12261 Bohr) occupying 0.730370 of unit cell:	Completed after 8 iterations at t[s]:  14226.99
	FillingsUpdate:  mu: -0.127200000  nElectrons: 224.902369  magneticMoment: [ Abs: 0.24282  Tot: +0.23259 ]
	SubspaceRotationAdjust: set factor to 0.0589
ElecMinimize: Iter:  43  G: -359.044598973218683  |grad|_K:  1.013e-06  alpha:  3.151e-03  linmin: -6.932e-05  t[s]:  14276.56
	Linear fluid (dielectric constant: 78.4, screening length: 8.12261 Bohr) occupying 0.730386 of unit cell:	Completed after 3 iterations at t[s]:  14319.53
	Linear fluid (dielectric constant: 78.4, screening length: 8.12261 Bohr) occupying 0.730396 of unit cell:	Completed after 2 iterations at t[s]:  14355.90
	FillingsUpdate:  mu: -0.127200000  nElectrons: 224.904914  magneticMoment: [ Abs: 0.25197  Tot: +0.24120 ]
	SubspaceRotationAdjust: set factor to 0.054
ElecMinimize: Iter:  44  G: -359.044600201137484  |grad|_K:  1.042e-06  alpha:  5.070e-03  linmin: -6.299e-06  t[s]:  14405.51
	Linear fluid (dielectric constant: 78.4, screening length: 8.12261 Bohr) occupying 0.730422 of unit cell:	Completed after 3 iterations at t[s]:  14448.57
	Linear fluid (dielectric constant: 78.4, screening length: 8.12261 Bohr) occupying 0.730418 of unit cell:	Completed after 2 iterations at t[s]:  14484.99
	FillingsUpdate:  mu: -0.127200000  nElectrons: 224.907163  magneticMoment: [ Abs: 0.25991  Tot: +0.24866 ]
	SubspaceRotationAdjust: set factor to 0.0499
ElecMinimize: Iter:  45  G: -359.044601150672520  |grad|_K:  1.065e-06  alpha:  4.231e-03  linmin: -1.049e-06  t[s]:  14534.55
	Linear fluid (dielectric constant: 78.4, screening length: 8.12261 Bohr) occupying 0.730441 of unit cell:	Completed after 3 iterations at t[s]:  14577.59
	Linear fluid (dielectric constant: 78.4, screening length: 8.12261 Bohr) occupying 0.730439 of unit cell:	Completed after 0 iterations at t[s]:  14611.88
	FillingsUpdate:  mu: -0.127200000  nElectrons: 224.909358  magneticMoment: [ Abs: 0.26755  Tot: +0.25581 ]
	SubspaceRotationAdjust: set factor to 0.0461
ElecMinimize: Iter:  46  G: -359.044602099981262  |grad|_K:  1.085e-06  alpha:  3.970e-03  linmin:  1.480e-05  t[s]:  14661.45
	Linear fluid (dielectric constant: 78.4, screening length: 8.12261 Bohr) occupying 0.730462 of unit cell:	Completed after 3 iterations at t[s]:  14704.47
	Linear fluid (dielectric constant: 78.4, screening length: 8.12261 Bohr) occupying 0.730461 of unit cell:	Completed after 0 iterations at t[s]:  14738.79
	FillingsUpdate:  mu: -0.127200000  nElectrons: 224.911557  magneticMoment: [ Abs: 0.27508  Tot: +0.26283 ]
	SubspaceRotationAdjust: set factor to 0.0426
ElecMinimize: Iter:  47  G: -359.044603025662411  |grad|_K:  1.095e-06  alpha:  3.837e-03  linmin:  1.932e-05  t[s]:  14789.08
	Linear fluid (dielectric constant: 78.4, screening length: 8.12261 Bohr) occupying 0.730483 of unit cell:	Completed after 3 iterations at t[s]:  14832.08
	Linear fluid (dielectric constant: 78.4, screening length: 8.12261 Bohr) occupying 0.730482 of unit cell:	Completed after 0 iterations at t[s]:  14866.47
	FillingsUpdate:  mu: -0.127200000  nElectrons: 224.913703  magneticMoment: [ Abs: 0.28230  Tot: +0.26954 ]
	SubspaceRotationAdjust: set factor to 0.0393
ElecMinimize: Iter:  48  G: -359.044603923358807  |grad|_K:  1.099e-06  alpha:  3.685e-03  linmin:  1.875e-05  t[s]:  14916.03
	Linear fluid (dielectric constant: 78.4, screening length: 8.12261 Bohr) occupying 0.730503 of unit cell:	Completed after 3 iterations at t[s]:  14959.01
	Linear fluid (dielectric constant: 78.4, screening length: 8.12261 Bohr) occupying 0.730502 of unit cell:	Completed after 0 iterations at t[s]:  14993.45
	FillingsUpdate:  mu: -0.127200000  nElectrons: 224.915829  magneticMoment: [ Abs: 0.28933  Tot: +0.27606 ]
	SubspaceRotationAdjust: set factor to 0.0362
ElecMinimize: Iter:  49  G: -359.044604814251613  |grad|_K:  1.095e-06  alpha:  3.634e-03  linmin:  1.055e-05  t[s]:  15042.67
[...]
disp C   0.000000000000000   0.000000000000000   0.000000000000000
disp C   0.000000000000000   0.000000000000000   0.000000000000000
disp C   0.000000000000000   0.000000000000000   0.000000000000000
disp C   0.000000000000000   0.000000000000000   0.000000000000000
disp C   0.000000000000000   0.000000000000000   0.000000000000000
disp C   0.000000000000000   0.000000000000000   0.000000000000000
disp C   0.000000000000000   0.000000000000000   0.000000000000000
disp C   0.000000000000000   0.000000000000000   0.000000000000000
disp C   0.000000000000000   0.000000000000000   0.000000000000000
disp C   0.000000000000000   0.000000000000000   0.000000000000000
disp C   0.000000000000000   0.000000000000000   0.000000000000000
disp C   0.000000000000000   0.000000000000000   0.000000000000000
disp C   0.000000000000000   0.000000000000000   0.000000000000000
disp C   0.000000000000000   0.000000000000000   0.000000000000000
disp C   0.000000000000000   0.000000000000000   0.000000000000000
disp C  -0.000122550887540  -0.003601940341215   0.001063254340746
disp N   0.000000000000000   0.000000000000000   0.000000000000000
disp N   0.000000000000000   0.000000000000000   0.000000000000000
disp N   0.000000000000000   0.000000000000000   0.000000000000000
disp N   0.000000000000000   0.000000000000000   0.000000000000000
disp Ti   0.000000000000000   0.000000000000000   0.000000000000000
disp O  -0.001816357868253  -0.000999586593801   0.000459569736831
disp O  -0.001756809720872   0.002825799503207   0.002847234337849

Real mode 4:
Frequency: 0.001571 Eh [ 345 cm^-1 ]
Degeneracy: 1 of 1
IR intensity: 0.0755 e^2/amu [ 73.7 km/mol ]
Displacements:
disp C   0.000000000000000   0.000000000000000   0.000000000000000
disp C   0.000000000000000   0.000000000000000   0.000000000000000
disp C   0.000000000000000   0.000000000000000   0.000000000000000
disp C   0.000000000000000   0.000000000000000   0.000000000000000
disp C   0.000000000000000   0.000000000000000   0.000000000000000
disp C   0.000000000000000   0.000000000000000   0.000000000000000
disp C   0.000000000000000   0.000000000000000   0.000000000000000
disp C   0.000000000000000   0.000000000000000   0.000000000000000
disp C   0.000000000000000   0.000000000000000   0.000000000000000
disp C   0.000000000000000   0.000000000000000   0.000000000000000
disp C   0.000000000000000   0.000000000000000   0.000000000000000
disp C   0.000000000000000   0.000000000000000   0.000000000000000
disp C   0.000000000000000   0.000000000000000   0.000000000000000
disp C   0.000000000000000   0.000000000000000   0.000000000000000
disp C   0.000000000000000   0.000000000000000   0.000000000000000
disp C   0.000000000000000   0.000000000000000   0.000000000000000
disp C   0.000000000000000   0.000000000000000   0.000000000000000
disp C   0.000000000000000   0.000000000000000   0.000000000000000
disp C   0.000000000000000   0.000000000000000   0.000000000000000
disp C   0.000000000000000   0.000000000000000   0.000000000000000
disp C   0.000000000000000   0.000000000000000   0.000000000000000
disp C   0.000000000000000   0.000000000000000   0.000000000000000
disp C   0.000000000000000   0.000000000000000   0.000000000000000
disp C   0.000000000000000   0.000000000000000   0.000000000000000
disp C   0.000000000000000   0.000000000000000   0.000000000000000
disp C   0.000000000000000   0.000000000000000   0.000000000000000
disp C   0.000000000000000   0.000000000000000   0.000000000000000
disp C   0.000000000000000   0.000000000000000   0.000000000000000
disp C   0.000000000000000   0.000000000000000   0.000000000000000
disp C   0.000000000000000   0.000000000000000   0.000000000000000
disp C   0.000000000000000   0.000000000000000   0.000000000000000
disp C   0.000000000000000   0.000000000000000   0.000000000000000
disp C   0.000000000000000   0.000000000000000   0.000000000000000
disp C   0.000000000000000   0.000000000000000   0.000000000000000
disp C   0.000000000000000   0.000000000000000   0.000000000000000
disp C   0.000000000000000   0.000000000000000   0.000000000000000
disp C   0.000000000000000   0.000000000000000   0.000000000000000
disp C   0.000000000000000   0.000000000000000   0.000000000000000
disp C   0.000000000000000   0.000000000000000   0.000000000000000
disp C   0.000000000000000   0.000000000000000   0.000000000000000
disp C   0.000000000000000   0.000000000000000   0.000000000000000
disp C   0.000000000000000   0.000000000000000   0.000000000000000
disp C   0.000000000000000   0.000000000000000   0.000000000000000
disp C   0.000000000000000   0.000000000000000   0.000000000000000
disp C   0.001719773557650   0.000054651706610   0.000249908527014
disp N   0.000000000000000   0.000000000000000   0.000000000000000
disp N   0.000000000000000   0.000000000000000   0.000000000000000
disp N   0.000000000000000   0.000000000000000   0.000000000000000
disp N   0.000000000000000   0.000000000000000   0.000000000000000
disp Ti   0.000000000000000   0.000000000000000   0.000000000000000
disp O   0.001433995759470   0.000737943085476   0.003696648212516
disp O  -0.003656987334935  -0.000103914361325  -0.001538702510448

Real mode 5:
Frequency: 0.003221 Eh [ 707 cm^-1 ]
Degeneracy: 1 of 1
IR intensity: 2.2833 e^2/amu [ 2226.0 km/mol ]
Displacements:
disp C   0.000000000000000   0.000000000000000   0.000000000000000
disp C   0.000000000000000   0.000000000000000   0.000000000000000
disp C   0.000000000000000   0.000000000000000   0.000000000000000
disp C   0.000000000000000   0.000000000000000   0.000000000000000
disp C   0.000000000000000   0.000000000000000   0.000000000000000
disp C   0.000000000000000   0.000000000000000   0.000000000000000
disp C   0.000000000000000   0.000000000000000   0.000000000000000
disp C   0.000000000000000   0.000000000000000   0.000000000000000
disp C   0.000000000000000   0.000000000000000   0.000000000000000
disp C   0.000000000000000   0.000000000000000   0.000000000000000
disp C   0.000000000000000   0.000000000000000   0.000000000000000
disp C   0.000000000000000   0.000000000000000   0.000000000000000
disp C   0.000000000000000   0.000000000000000   0.000000000000000
disp C   0.000000000000000   0.000000000000000   0.000000000000000
disp C   0.000000000000000   0.000000000000000   0.000000000000000
disp C   0.000000000000000   0.000000000000000   0.000000000000000
disp C   0.000000000000000   0.000000000000000   0.000000000000000
disp C   0.000000000000000   0.000000000000000   0.000000000000000
disp C   0.000000000000000   0.000000000000000   0.000000000000000
disp C   0.000000000000000   0.000000000000000   0.000000000000000
disp C   0.000000000000000   0.000000000000000   0.000000000000000
disp C   0.000000000000000   0.000000000000000   0.000000000000000
disp C   0.000000000000000   0.000000000000000   0.000000000000000
disp C   0.000000000000000   0.000000000000000   0.000000000000000
disp C   0.000000000000000   0.000000000000000   0.000000000000000
disp C   0.000000000000000   0.000000000000000   0.000000000000000
disp C   0.000000000000000   0.000000000000000   0.000000000000000
disp C   0.000000000000000   0.000000000000000   0.000000000000000
disp C   0.000000000000000   0.000000000000000   0.000000000000000
disp C   0.000000000000000   0.000000000000000   0.000000000000000
disp C   0.000000000000000   0.000000000000000   0.000000000000000
disp C   0.000000000000000   0.000000000000000   0.000000000000000
disp C   0.000000000000000   0.000000000000000   0.000000000000000
disp C   0.000000000000000   0.000000000000000   0.000000000000000
disp C   0.000000000000000   0.000000000000000   0.000000000000000
disp C   0.000000000000000   0.000000000000000   0.000000000000000
disp C   0.000000000000000   0.000000000000000   0.000000000000000
disp C   0.000000000000000   0.000000000000000   0.000000000000000
disp C   0.000000000000000   0.000000000000000   0.000000000000000
disp C   0.000000000000000   0.000000000000000   0.000000000000000
disp C   0.000000000000000   0.000000000000000   0.000000000000000
disp C   0.000000000000000   0.000000000000000   0.000000000000000
disp C   0.000000000000000   0.000000000000000   0.000000000000000
disp C   0.000000000000000   0.000000000000000   0.000000000000000
disp C  -0.001210939727413  -0.000528955085662  -0.002815988791780
disp N   0.000000000000000   0.000000000000000   0.000000000000000
disp N   0.000000000000000   0.000000000000000   0.000000000000000
disp N   0.000000000000000   0.000000000000000   0.000000000000000
disp N   0.000000000000000   0.000000000000000   0.000000000000000
disp Ti   0.000000000000000   0.000000000000000   0.000000000000000
disp O  -0.000897176487377  -0.000890465268965   0.003402492933554
disp O   0.002851306843908   0.001959183535985  -0.001371303467324

Real mode 6:
Frequency: 0.004904 Eh [ 1076 cm^-1 ]
Degeneracy: 1 of 1
IR intensity: 7.6498 e^2/amu [ 7457.6 km/mol ]
Displacements:
disp C   0.000000000000000   0.000000000000000   0.000000000000000
disp C   0.000000000000000   0.000000000000000   0.000000000000000
disp C   0.000000000000000   0.000000000000000   0.000000000000000
disp C   0.000000000000000   0.000000000000000   0.000000000000000
disp C   0.000000000000000   0.000000000000000   0.000000000000000
disp C   0.000000000000000   0.000000000000000   0.000000000000000
disp C   0.000000000000000   0.000000000000000   0.000000000000000
disp C   0.000000000000000   0.000000000000000   0.000000000000000
disp C   0.000000000000000   0.000000000000000   0.000000000000000
disp C   0.000000000000000   0.000000000000000   0.000000000000000
disp C   0.000000000000000   0.000000000000000   0.000000000000000
disp C   0.000000000000000   0.000000000000000   0.000000000000000
disp C   0.000000000000000   0.000000000000000   0.000000000000000
disp C   0.000000000000000   0.000000000000000   0.000000000000000
disp C   0.000000000000000   0.000000000000000   0.000000000000000
disp C   0.000000000000000   0.000000000000000   0.000000000000000
disp C   0.000000000000000   0.000000000000000   0.000000000000000
disp C   0.000000000000000   0.000000000000000   0.000000000000000
disp C   0.000000000000000   0.000000000000000   0.000000000000000
disp C   0.000000000000000   0.000000000000000   0.000000000000000
disp C   0.000000000000000   0.000000000000000   0.000000000000000
disp C   0.000000000000000   0.000000000000000   0.000000000000000
disp C   0.000000000000000   0.000000000000000   0.000000000000000
disp C   0.000000000000000   0.000000000000000   0.000000000000000
disp C   0.000000000000000   0.000000000000000   0.000000000000000
disp C   0.000000000000000   0.000000000000000   0.000000000000000
disp C   0.000000000000000   0.000000000000000   0.000000000000000
disp C   0.000000000000000   0.000000000000000   0.000000000000000
disp C   0.000000000000000   0.000000000000000   0.000000000000000
disp C   0.000000000000000   0.000000000000000   0.000000000000000
disp C   0.000000000000000   0.000000000000000   0.000000000000000
disp C   0.000000000000000   0.000000000000000   0.000000000000000
disp C   0.000000000000000   0.000000000000000   0.000000000000000
disp C   0.000000000000000   0.000000000000000   0.000000000000000
disp C   0.000000000000000   0.000000000000000   0.000000000000000
disp C   0.000000000000000   0.000000000000000   0.000000000000000
disp C   0.000000000000000   0.000000000000000   0.000000000000000
disp C   0.000000000000000   0.000000000000000   0.000000000000000
disp C   0.000000000000000   0.000000000000000   0.000000000000000
disp C   0.000000000000000   0.000000000000000   0.000000000000000
disp C   0.000000000000000   0.000000000000000   0.000000000000000
disp C   0.000000000000000   0.000000000000000   0.000000000000000
disp C   0.000000000000000   0.000000000000000   0.000000000000000
disp C   0.000000000000000   0.000000000000000   0.000000000000000
disp C   0.003803916767291   0.002126700831463   0.001293616940868
disp N   0.000000000000000   0.000000000000000   0.000000000000000
disp N   0.000000000000000   0.000000000000000   0.000000000000000
disp N   0.000000000000000   0.000000000000000   0.000000000000000
disp N   0.000000000000000   0.000000000000000   0.000000000000000
disp Ti   0.000000000000000   0.000000000000000   0.000000000000000
disp O  -0.003436256344811  -0.002301030227721  -0.000085574605844
disp O   0.000070899763614   0.000120582101669  -0.001282065359894

Real mode 7:
Frequency: 0.006889 Eh [ 1512 cm^-1 ]
Degeneracy: 1 of 1
IR intensity: 12.2362 e^2/amu [ 11928.8 km/mol ]
Displacements:
disp C   0.000000000000000   0.000000000000000   0.000000000000000
disp C   0.000000000000000   0.000000000000000   0.000000000000000
disp C   0.000000000000000   0.000000000000000   0.000000000000000
disp C   0.000000000000000   0.000000000000000   0.000000000000000
disp C   0.000000000000000   0.000000000000000   0.000000000000000
disp C   0.000000000000000   0.000000000000000   0.000000000000000
disp C   0.000000000000000   0.000000000000000   0.000000000000000
disp C   0.000000000000000   0.000000000000000   0.000000000000000
disp C   0.000000000000000   0.000000000000000   0.000000000000000
disp C   0.000000000000000   0.000000000000000   0.000000000000000
disp C   0.000000000000000   0.000000000000000   0.000000000000000
disp C   0.000000000000000   0.000000000000000   0.000000000000000
disp C   0.000000000000000   0.000000000000000   0.000000000000000
disp C   0.000000000000000   0.000000000000000   0.000000000000000
disp C   0.000000000000000   0.000000000000000   0.000000000000000
disp C   0.000000000000000   0.000000000000000   0.000000000000000
disp C   0.000000000000000   0.000000000000000   0.000000000000000
disp C   0.000000000000000   0.000000000000000   0.000000000000000
disp C   0.000000000000000   0.000000000000000   0.000000000000000
disp C   0.000000000000000   0.000000000000000   0.000000000000000
disp C   0.000000000000000   0.000000000000000   0.000000000000000
disp C   0.000000000000000   0.000000000000000   0.000000000000000
disp C   0.000000000000000   0.000000000000000   0.000000000000000
disp C   0.000000000000000   0.000000000000000   0.000000000000000
disp C   0.000000000000000   0.000000000000000   0.000000000000000
disp C   0.000000000000000   0.000000000000000   0.000000000000000
disp C   0.000000000000000   0.000000000000000   0.000000000000000
disp C   0.000000000000000   0.000000000000000   0.000000000000000
disp C   0.000000000000000   0.000000000000000   0.000000000000000
disp C   0.000000000000000   0.000000000000000   0.000000000000000
disp C   0.000000000000000   0.000000000000000   0.000000000000000
disp C   0.000000000000000   0.000000000000000   0.000000000000000
disp C   0.000000000000000   0.000000000000000   0.000000000000000
disp C   0.000000000000000   0.000000000000000   0.000000000000000
disp C   0.000000000000000   0.000000000000000   0.000000000000000
disp C   0.000000000000000   0.000000000000000   0.000000000000000
disp C   0.000000000000000   0.000000000000000   0.000000000000000
disp C   0.000000000000000   0.000000000000000   0.000000000000000
disp C   0.000000000000000   0.000000000000000   0.000000000000000
disp C   0.000000000000000   0.000000000000000   0.000000000000000
disp C   0.000000000000000   0.000000000000000   0.000000000000000
disp C   0.000000000000000   0.000000000000000   0.000000000000000
disp C   0.000000000000000   0.000000000000000   0.000000000000000
disp C   0.000000000000000   0.000000000000000   0.000000000000000
disp C   0.001730871349007   0.001599256335469  -0.004971935077759
disp N   0.000000000000000   0.000000000000000   0.000000000000000
disp N   0.000000000000000   0.000000000000000   0.000000000000000
disp N   0.000000000000000   0.000000000000000   0.000000000000000
disp N   0.000000000000000   0.000000000000000   0.000000000000000
disp Ti   0.000000000000000   0.000000000000000   0.000000000000000
disp O  -0.000274828207083  -0.000230208050298   0.000063047740508
disp O  -0.000983778936922  -0.000990899194065   0.003078702133610

Vibrational free energy components at T = 298 K:
	ZPE:          0.009789
	Evib:         0.011899
	TSvib:        0.003599
	Avib:         0.008301


Dumping 'jdft.n_up' ... done
Dumping 'jdft.n_dn' ... done
Dumping 'jdft.tau_up' ... done
Dumping 'jdft.tau_dn' ... done
Dumping 'jdft.eigenvals' ... done
Dumping 'jdft.eigStats' ... 
	eMin: -2.261302 at state 0 ( [ +0.000000 +0.000000 +0.000000 ] spin 1 )
	HOMO: -0.127180 at state 5 ( [ +0.333333 -0.333333 +0.000000 ] spin 1 )
	mu  : -0.127200
	LUMO: -0.126788 at state 2 ( [ +0.000000 -0.333333 +0.000000 ] spin 1 )
	eMax: +0.020265 at state 9 ( [ +0.000000 +0.000000 +0.000000 ] spin -1 )
	HOMO-LUMO gap: +0.000391
	Optical gap  : +0.008174 at state 5 ( [ +0.333333 -0.333333 +0.000000 ] spin 1 )
Dumping 'jdft.kPts' ... done
Dumping 'jdft.dosUp' ... done.
Dumping 'jdft.dosDn' ... done.
End date and time: Thu Nov 10 05:39:03 2022  (Duration: 0-10:40:25.01)
Done!

PROFILER:             augmentDensityGrid     0.766047 +/-     0.857868 s, 2368 calls,   1814.000006 s total
PROFILER:         augmentDensityGridGrad     0.509182 +/-     0.543987 s, 1212 calls,    617.128206 s total
PROFILER:        augmentDensitySpherical     0.000440 +/-     0.000533 s, 2368 calls,      1.042759 s total
PROFILER:    augmentDensitySphericalGrad     0.000444 +/-     0.000558 s, 1472 calls,      0.652893 s total
PROFILER:                 augmentOverlap     1.628598 +/-     2.124713 s, 4596 calls,   7485.034379 s total
PROFILER:        ColumnBundle::randomize     0.005028 +/-     0.000000 s,    1 calls,      0.005028 s total
PROFILER:                     diagouterI    15.010806 +/-     2.923166 s,  595 calls,   8931.429463 s total
PROFILER:              EdensityAndVscloc     7.731838 +/-     5.163687 s,  593 calls,   4584.980185 s total
PROFILER:                     EnlAndGrad     0.001389 +/-     0.001911 s, 2400 calls,      3.334433 s total
PROFILER:            ExCorrCommunication     0.058809 +/-     0.066643 s, 3670 calls,    215.827213 s total
PROFILER:               ExCorrFunctional     0.022172 +/-     0.003486 s,  624 calls,     13.835302 s total
PROFILER:                    ExCorrTotal     0.596734 +/-     0.103263 s,  624 calls,    372.362034 s total
PROFILER:                   Idag_DiagV_I    26.684168 +/-     9.690882 s,  358 calls,   9552.932129 s total
PROFILER:                    initWeights     1.939685 +/-     0.000000 s,    1 calls,      1.939685 s total
PROFILER:                    inv(matrix)     0.001747 +/-     0.000608 s,  514 calls,      0.898027 s total
PROFILER:            matrix::diagonalize     0.007036 +/-     0.004358 s,  923 calls,      6.494089 s total
PROFILER:                    matrix::set     0.000002 +/-     0.000004 s, 50842 calls,      0.092909 s total
PROFILER:            orthoMatrix(matrix)     0.001194 +/-     0.000586 s,  570 calls,      0.680852 s total
PROFILER:     RadialFunctionR::transform     0.003548 +/-     0.022374 s,  141 calls,      0.500282 s total
PROFILER:                    reduceKmesh     0.000000 +/-     0.000000 s,    1 calls,      0.000000 s total
PROFILER:   VanDerWaalsD3::energyAndGrad     0.029930 +/-     0.001604 s,   21 calls,      0.628524 s total
PROFILER:               WavefunctionDrag    24.681977 +/-     1.457241 s,   10 calls,    246.819770 s total
PROFILER:                            Y*M     0.718658 +/-     0.819843 s, 8379 calls,   6021.631645 s total
PROFILER:                          Y1^Y2     0.725228 +/-     0.834279 s, 6034 calls,   4376.025166 s total

MEMUSAGE:                   ColumnBundle     1.333771 GB
MEMUSAGE:        complexScalarFieldTilde     0.049438 GB
MEMUSAGE:                    IndexArrays     0.023178 GB
MEMUSAGE:                         matrix     0.020675 GB
MEMUSAGE:                           misc     0.050872 GB
MEMUSAGE:                    ScalarField     0.395508 GB
MEMUSAGE:               ScalarFieldTilde     0.262436 GB
MEMUSAGE:                          Total     1.650425 GB
