
*************** JDFTx 1.7.0 (git hash 5f12716a) ***************

Start date and time: Wed Nov  9 18:58:38 2022
Executable /home/nisi6161/jdftx_alpine/build/jdftx with command-line: -i in
Running on hosts (process indices):  c3cpu-c11-u9-1.rc.int.colorado.edu (0-17)
Divided in process groups (process indices):  0 (0)  1 (1)  2 (2)  3 (3)  4 (4)  5 (5)  6 (6)  7 (7)  8 (8)  9 (9)  10 (10)  11 (11)  12 (12)  13 (13)  14 (14)  15 (15)  16 (16)  17 (17)
Resource initialization completed at t[s]:      0.07
Run totals: 18 processes, 48 threads, 0 GPUs


Input parsed successfully to the following command list (including defaults):

basis kpoint-dependent
converge-empty-states yes
coords-type Cartesian
core-overlap-check none
coulomb-interaction Periodic
davidson-band-ratio 1.1
density-of-states Etol 1.000000e-06 Esigma 1.000000e-03 \
		Complete \
	Total \
	OrthoOrbital C 1   s \
	OrthoOrbital C 1   p \
	OrthoOrbital C 1   px \
	OrthoOrbital C 1   py \
	OrthoOrbital C 1   pz \
	OrthoOrbital C 2   s \
	OrthoOrbital C 2   p \
	OrthoOrbital C 2   px \
	OrthoOrbital C 2   py \
	OrthoOrbital C 2   pz \
	OrthoOrbital C 3   s \
	OrthoOrbital C 3   p \
	OrthoOrbital C 3   px \
	OrthoOrbital C 3   py \
	OrthoOrbital C 3   pz \
	OrthoOrbital C 4   s \
	OrthoOrbital C 4   p \
	OrthoOrbital C 4   px \
	OrthoOrbital C 4   py \
	OrthoOrbital C 4   pz \
	OrthoOrbital C 5   s \
	OrthoOrbital C 5   p \
	OrthoOrbital C 5   px \
	OrthoOrbital C 5   py \
	OrthoOrbital C 5   pz \
	OrthoOrbital C 6   s \
	OrthoOrbital C 6   p \
	OrthoOrbital C 6   px \
	OrthoOrbital C 6   py \
	OrthoOrbital C 6   pz \
	OrthoOrbital C 7   s \
	OrthoOrbital C 7   p \
	OrthoOrbital C 7   px \
	OrthoOrbital C 7   py \
	OrthoOrbital C 7   pz \
	OrthoOrbital C 8   s \
	OrthoOrbital C 8   p \
	OrthoOrbital C 8   px \
	OrthoOrbital C 8   py \
	OrthoOrbital C 8   pz \
	OrthoOrbital C 9   s \
	OrthoOrbital C 9   p \
	OrthoOrbital C 9   px \
	OrthoOrbital C 9   py \
	OrthoOrbital C 9   pz \
	OrthoOrbital C 10   s \
	OrthoOrbital C 10   p \
	OrthoOrbital C 10   px \
	OrthoOrbital C 10   py \
	OrthoOrbital C 10   pz \
	OrthoOrbital C 11   s \
	OrthoOrbital C 11   p \
	OrthoOrbital C 11   px \
	OrthoOrbital C 11   py \
	OrthoOrbital C 11   pz \
	OrthoOrbital C 12   s \
	OrthoOrbital C 12   p \
	OrthoOrbital C 12   px \
	OrthoOrbital C 12   py \
	OrthoOrbital C 12   pz \
	OrthoOrbital C 13   s \
	OrthoOrbital C 13   p \
	OrthoOrbital C 13   px \
	OrthoOrbital C 13   py \
	OrthoOrbital C 13   pz \
	OrthoOrbital C 14   s \
	OrthoOrbital C 14   p \
	OrthoOrbital C 14   px \
	OrthoOrbital C 14   py \
	OrthoOrbital C 14   pz \
	OrthoOrbital C 15   s \
	OrthoOrbital C 15   p \
	OrthoOrbital C 15   px \
	OrthoOrbital C 15   py \
	OrthoOrbital C 15   pz \
	OrthoOrbital C 16   s \
	OrthoOrbital C 16   p \
	OrthoOrbital C 16   px \
	OrthoOrbital C 16   py \
	OrthoOrbital C 16   pz \
	OrthoOrbital C 17   s \
	OrthoOrbital C 17   p \
	OrthoOrbital C 17   px \
	OrthoOrbital C 17   py \
	OrthoOrbital C 17   pz \
	OrthoOrbital C 18   s \
	OrthoOrbital C 18   p \
	OrthoOrbital C 18   px \
	OrthoOrbital C 18   py \
	OrthoOrbital C 18   pz \
	OrthoOrbital C 19   s \
	OrthoOrbital C 19   p \
	OrthoOrbital C 19   px \
	OrthoOrbital C 19   py \
	OrthoOrbital C 19   pz \
	OrthoOrbital C 20   s \
	OrthoOrbital C 20   p \
	OrthoOrbital C 20   px \
	OrthoOrbital C 20   py \
	OrthoOrbital C 20   pz \
	OrthoOrbital C 21   s \
	OrthoOrbital C 21   p \
	OrthoOrbital C 21   px \
	OrthoOrbital C 21   py \
	OrthoOrbital C 21   pz \
	OrthoOrbital C 22   s \
	OrthoOrbital C 22   p \
	OrthoOrbital C 22   px \
	OrthoOrbital C 22   py \
	OrthoOrbital C 22   pz \
	OrthoOrbital C 23   s \
	OrthoOrbital C 23   p \
	OrthoOrbital C 23   px \
	OrthoOrbital C 23   py \
	OrthoOrbital C 23   pz \
	OrthoOrbital C 24   s \
	OrthoOrbital C 24   p \
	OrthoOrbital C 24   px \
	OrthoOrbital C 24   py \
	OrthoOrbital C 24   pz \
	OrthoOrbital C 25   s \
	OrthoOrbital C 25   p \
	OrthoOrbital C 25   px \
	OrthoOrbital C 25   py \
	OrthoOrbital C 25   pz \
	OrthoOrbital C 26   s \
	OrthoOrbital C 26   p \
	OrthoOrbital C 26   px \
	OrthoOrbital C 26   py \
	OrthoOrbital C 26   pz \
	OrthoOrbital C 27   s \
	OrthoOrbital C 27   p \
	OrthoOrbital C 27   px \
	OrthoOrbital C 27   py \
	OrthoOrbital C 27   pz \
	OrthoOrbital C 28   s \
	OrthoOrbital C 28   p \
	OrthoOrbital C 28   px \
	OrthoOrbital C 28   py \
	OrthoOrbital C 28   pz \
	OrthoOrbital C 29   s \
	OrthoOrbital C 29   p \
	OrthoOrbital C 29   px \
	OrthoOrbital C 29   py \
	OrthoOrbital C 29   pz \
	OrthoOrbital C 30   s \
	OrthoOrbital C 30   p \
	OrthoOrbital C 30   px \
	OrthoOrbital C 30   py \
	OrthoOrbital C 30   pz \
	OrthoOrbital C 31   s \
	OrthoOrbital C 31   p \
	OrthoOrbital C 31   px \
	OrthoOrbital C 31   py \
	OrthoOrbital C 31   pz \
	OrthoOrbital C 32   s \
	OrthoOrbital C 32   p \
	OrthoOrbital C 32   px \
	OrthoOrbital C 32   py \
	OrthoOrbital C 32   pz \
	OrthoOrbital C 33   s \
	OrthoOrbital C 33   p \
	OrthoOrbital C 33   px \
	OrthoOrbital C 33   py \
	OrthoOrbital C 33   pz \
	OrthoOrbital C 34   s \
	OrthoOrbital C 34   p \
	OrthoOrbital C 34   px \
	OrthoOrbital C 34   py \
	OrthoOrbital C 34   pz \
	OrthoOrbital C 35   s \
	OrthoOrbital C 35   p \
	OrthoOrbital C 35   px \
	OrthoOrbital C 35   py \
	OrthoOrbital C 35   pz \
	OrthoOrbital C 36   s \
	OrthoOrbital C 36   p \
	OrthoOrbital C 36   px \
	OrthoOrbital C 36   py \
	OrthoOrbital C 36   pz \
	OrthoOrbital C 37   s \
	OrthoOrbital C 37   p \
	OrthoOrbital C 37   px \
	OrthoOrbital C 37   py \
	OrthoOrbital C 37   pz \
	OrthoOrbital C 38   s \
	OrthoOrbital C 38   p \
	OrthoOrbital C 38   px \
	OrthoOrbital C 38   py \
	OrthoOrbital C 38   pz \
	OrthoOrbital C 39   s \
	OrthoOrbital C 39   p \
	OrthoOrbital C 39   px \
	OrthoOrbital C 39   py \
	OrthoOrbital C 39   pz \
	OrthoOrbital C 40   s \
	OrthoOrbital C 40   p \
	OrthoOrbital C 40   px \
	OrthoOrbital C 40   py \
	OrthoOrbital C 40   pz \
	OrthoOrbital C 41   s \
	OrthoOrbital C 41   p \
	OrthoOrbital C 41   px \
	OrthoOrbital C 41   py \
	OrthoOrbital C 41   pz \
	OrthoOrbital C 42   s \
	OrthoOrbital C 42   p \
	OrthoOrbital C 42   px \
	OrthoOrbital C 42   py \
	OrthoOrbital C 42   pz \
	OrthoOrbital C 43   s \
	OrthoOrbital C 43   p \
	OrthoOrbital C 43   px \
	OrthoOrbital C 43   py \
	OrthoOrbital C 43   pz \
	OrthoOrbital C 44   s \
	OrthoOrbital C 44   p \
	OrthoOrbital C 44   px \
	OrthoOrbital C 44   py \
	OrthoOrbital C 44   pz \
	OrthoOrbital C 45   s \
	OrthoOrbital C 45   p \
	OrthoOrbital C 45   px \
	OrthoOrbital C 45   py \
	OrthoOrbital C 45   pz \
	OrthoOrbital N 1   s \
	OrthoOrbital N 1   p \
	OrthoOrbital N 1   px \
	OrthoOrbital N 1   py \
	OrthoOrbital N 1   pz \
	OrthoOrbital N 2   s \
	OrthoOrbital N 2   p \
	OrthoOrbital N 2   px \
	OrthoOrbital N 2   py \
	OrthoOrbital N 2   pz \
	OrthoOrbital N 3   s \
	OrthoOrbital N 3   p \
	OrthoOrbital N 3   px \
	OrthoOrbital N 3   py \
	OrthoOrbital N 3   pz \
	OrthoOrbital N 4   s \
	OrthoOrbital N 4   p \
	OrthoOrbital N 4   px \
	OrthoOrbital N 4   py \
	OrthoOrbital N 4   pz \
	OrthoOrbital Ti 1   s \
	OrthoOrbital Ti 1   p \
	OrthoOrbital Ti 1   px \
	OrthoOrbital Ti 1   py \
	OrthoOrbital Ti 1   pz \
	OrthoOrbital Ti 1   d \
	OrthoOrbital Ti 1   dxy \
	OrthoOrbital Ti 1   dyz \
	OrthoOrbital Ti 1   dz2 \
	OrthoOrbital Ti 1   dxz \
	OrthoOrbital Ti 1   dx2-y2 \
	OrthoOrbital O 1   s \
	OrthoOrbital O 1   p \
	OrthoOrbital O 1   px \
	OrthoOrbital O 1   py \
	OrthoOrbital O 1   pz
dump End ElecDensity KEdensity BandEigs EigStats RhoAtom DOS Kpoints
dump Ionic State IonicPositions Lattice EigStats Ecomponents
dump 
dump 
dump 
dump 
dump 
dump 
dump 
dump 
dump-name jdft.$VAR
elec-cutoff 20
elec-eigen-algo Davidson
elec-ex-corr gga-PBE
elec-initial-magnetization 0.000000 no
elec-n-bands 131
elec-smearing Fermi 0.001
electronic-minimize  \
	dirUpdateScheme      FletcherReeves \
	linminMethod         DirUpdateRecommended \
	nIterations          100 \
	history              15 \
	knormThreshold       0 \
	energyDiffThreshold  1e-07 \
	nEnergyDiff          2 \
	alphaTstart          1 \
	alphaTmin            1e-10 \
	updateTestStepSize   yes \
	alphaTreduceFactor   0.1 \
	alphaTincreaseFactor 3 \
	nAlphaAdjustMax      3 \
	wolfeEnergy          0.0001 \
	wolfeGradient        0.9 \
	fdTest               no
exchange-regularization WignerSeitzTruncated
fluid LinearPCM 298.000000 1.013250
fluid-anion F- 0.5 MeanFieldLJ \
	epsBulk 1 \
	pMol 0 \
	epsInf 1 \
	Pvap 0 \
	sigmaBulk 0 \
	Rvdw 2.24877 \
	Res 0 \
	tauNuc 343133
fluid-cation Na+ 0.5 MeanFieldLJ \
	epsBulk 1 \
	pMol 0 \
	epsInf 1 \
	Pvap 0 \
	sigmaBulk 0 \
	Rvdw 2.19208 \
	Res 0 \
	tauNuc 343133
fluid-ex-corr lda-TF lda-PZ
fluid-gummel-loop 10 1.000000e-05
fluid-minimize  \
	dirUpdateScheme      PolakRibiere \
	linminMethod         DirUpdateRecommended \
	nIterations          400 \
	history              15 \
	knormThreshold       1e-11 \
	energyDiffThreshold  0 \
	nEnergyDiff          2 \
	alphaTstart          1 \
	alphaTmin            1e-10 \
	updateTestStepSize   yes \
	alphaTreduceFactor   0.1 \
	alphaTincreaseFactor 3 \
	nAlphaAdjustMax      6 \
	wolfeEnergy          0.0001 \
	wolfeGradient        0.9 \
	fdTest               no
fluid-solvent H2O 55.338 ScalarEOS \
	epsBulk 78.4 \
	pMol 0.92466 \
	epsInf 1.77 \
	Pvap 1.06736e-10 \
	sigmaBulk 4.62e-05 \
	Rvdw 2.61727 \
	Res 1.42 \
	tauNuc 343133 \
	poleEl 15 7 1
forces-output-coords Positions
ion C   0.036216000000000   0.097887000000000  43.220626000000010 0
ion C  -2.359470000000001   4.040891000000001  43.105824000000005 0
ion C  -4.702474000000000   8.049414000000001  42.954860000000004 0
ion C  -7.005740000000001  12.070576000000004  43.042281000000010 0
ion C  -9.331165000000002  16.076639000000004  43.204708000000004 0
ion C   4.726039000000001   0.202479000000000  43.241952000000005 0
ion C   2.314617000000000   4.205702000000000   0.022883000000000 0
ion C  -0.089258000000001   8.039329000000004  43.142981000000006 0
ion C  -2.389672000000000  12.054528000000001  43.069532000000009 0
ion C  -4.677464000000001  16.082506000000002  43.173996000000010 0
ion C   9.418001000000002   0.101279000000000   0.041396000000000 0
ion C   7.125034000000001   4.199260000000001   0.157713000000000 0
ion C   0.015300000000002  15.989387000000002   0.085042000000000 0
ion C  14.121637000000000   0.010962000000000   0.076218000000000 0
ion C  11.795993000000001   4.057804000000000  43.245845000000010 0
ion C   9.515506999999999   8.048938000000000   0.194524000000000 0
ion C   4.713773000000000  15.848231000000004   0.316679000000000 0
ion C   7.033399000000001  19.955320000000004   0.053595000000000 0
ion C  16.437010999999998   4.038803000000001  43.120704000000011 0
ion C  14.129546000000001   8.065828000000002  43.107598000000010 0
ion C  11.819654000000003  12.062545000000002   0.060516000000000 0
ion C   9.417572000000002  16.003868000000004   0.165715000000000 0
ion C   0.017377999999999   2.775517000000001  43.167248000000008 0
ion C  -2.391637000000000   6.712006000000001  43.014943000000009 0
ion C  -4.703659000000000  10.720473000000002  42.964160000000007 0
ion C  -7.003048000000000  14.743335000000004  43.125073000000008 0
ion C  -9.331601000000003  18.763241000000004  43.212278000000005 0
ion C   4.720143000000000   2.920320000000001   0.080284000000000 0
ion C  -0.094321999999999  10.725788000000003  43.212191000000004 0
ion C  -2.359042000000000  14.725712000000003  43.196792000000009 0
ion C  -4.678214000000000  18.767173000000007  43.246840000000006 0
ion C   9.425996000000001   2.780686000000001   0.049182000000000 0
ion C   2.312222999999999  14.551058000000003   0.246907000000000 0
ion C   0.027607999999999  18.669035999999998   0.085994000000000 0
ion C  14.114404000000002   2.699754000000000  43.216560000000008 0
ion C  11.819298000000002   6.729800000000002  43.241000000000007 0
ion C   9.523635000000002  10.738160000000002   0.289904000000000 0
ion C   7.124445999999999  14.574424000000004   0.381823000000000 0
ion C   4.711751999999997  18.569846000000002   0.154814000000000 0
ion C  18.761348999999999   2.699132000000001  43.162879000000004 0
ion C  16.431500000000003   6.713391000000000  43.025324000000005 0
ion C  14.130062000000002  10.734594000000000  43.125333000000005 0
ion C  11.790086000000006  14.735658000000003   0.067523000000000 0
ion C   9.399602000000000  18.681260000000005   0.057747000000000 0
ion C   4.090205000000000   8.007385000000001   5.230943000000001 1
ion N   2.172415000000000  11.956721000000002   0.325374000000000 0
ion N   7.263414999999998  11.992291000000003   0.629898000000000 0
ion N   2.183308999999999   6.791392000000002   0.146985000000000 0
ion N   7.242694000000000   6.780034000000000   0.377714000000000 0
ion Ti   4.669684000000000   9.311558000000002   1.710311000000000 0
ion O   3.633173000000000   7.093205000000001   7.226832000000002 1
ion-species /projects/musgravc/apps/jdftx-1.6.0/build/pseudopotentials/GBRV_v1.5/$ID_pbe_v1.uspp
ion-species /projects/musgravc/apps/jdftx-1.6.0/build/pseudopotentials/GBRV_v1.5/$ID_pbe_v1.2.uspp
ion-species /projects/musgravc/apps/jdftx-1.6.0/build/pseudopotentials/GBRV_v1.5/$ID_pbe_v1.4.uspp
ion-species /projects/musgravc/apps/jdftx-1.6.0/build/pseudopotentials/GBRV_v1.5/$ID_pbe_v1.5.uspp
ion-width Ecut
ionic-minimize  \
	dirUpdateScheme      L-BFGS \
	linminMethod         DirUpdateRecommended \
	nIterations          100 \
	history              15 \
	knormThreshold       0.0001 \
	energyDiffThreshold  0.0001 \
	nEnergyDiff          2 \
	alphaTstart          1 \
	alphaTmin            1e-10 \
	updateTestStepSize   yes \
	alphaTreduceFactor   0.1 \
	alphaTincreaseFactor 3 \
	nAlphaAdjustMax      3 \
	wolfeEnergy          0.0001 \
	wolfeGradient        0.9 \
	fdTest               no
kpoint   0.000000000000   0.000000000000   0.000000000000  1.00000000000000
kpoint-folding 3 3 1 
latt-move-scale 0 0 0
latt-scale 1 1 1 
lattice  \
	  23.436261999999999  -11.733459000000000    0.000000000000000  \
	   0.017994000000000   19.941849000000001    0.000000000000000  \
	   0.000000000000000    0.000000000000000   43.256312999999999 
lattice-minimize  \
	dirUpdateScheme      L-BFGS \
	linminMethod         DirUpdateRecommended \
	nIterations          0 \
	history              15 \
	knormThreshold       0 \
	energyDiffThreshold  1e-06 \
	nEnergyDiff          2 \
	alphaTstart          1 \
	alphaTmin            1e-10 \
	updateTestStepSize   yes \
	alphaTreduceFactor   0.1 \
	alphaTincreaseFactor 3 \
	nAlphaAdjustMax      3 \
	wolfeEnergy          0.0001 \
	wolfeGradient        0.9 \
	fdTest               no
lcao-params 30 1e-06 0.001
pcm-variant CANDLE
spintype z-spin
subspace-rotation-factor 1 yes
symmetries none
symmetry-threshold 0.0001
target-mu -0.1272 no

van-der-waals D3
vibrations \
	dr 0.01\
	centralDiff no\
	useConstraints yes\
	translationSym yes\
	rotationSym no\
	omegaMin 0.0002\
	T 298\
	omegaResolution 0.0001


Applied RMS atom displacement 0 bohrs to make symmetries exact.
Applied RMS atom displacement 0 bohrs to make symmetries exact.

---------- Initializing the Grid ----------
R = 
[      23.4363     -11.7335            0  ]
[     0.017994      19.9418            0  ]
[            0            0      43.2563  ]
unit cell volume = 20225.5
G =
[   0.267976   0.157673         -0  ]
[ -0.000241801   0.314933          0  ]
[          0         -0   0.145255  ]
Minimum fftbox size, Smin = [  96  96  176  ]
Chosen fftbox size, S = [  96  96  180  ]

---------- Exchange Correlation functional ----------
Initalized PBE GGA exchange.
Initalized PBE GGA correlation.

---------- Setting up pseudopotentials ----------
Width of ionic core gaussian charges (only for fluid interactions / plotting) set to 0.397384

Reading pseudopotential file '/projects/musgravc/apps/jdftx-1.6.0/build/pseudopotentials/GBRV_v1.5/c_pbe_v1.2.uspp':
  Title: C.  Created by USPP 7.3.6 on 3-2-2014
  Reference state energy: -5.406344.  4 valence electrons in orbitals:
    |200>  occupation: 2  eigenvalue: -0.504890
    |210>  occupation: 2  eigenvalue: -0.194356
  lMax: 1  lLocal: 2  QijEcut: 5
  4 projectors sampled on a log grid with 503 points:
    l: 0  eig: -0.504890  rCut: 1.3
    l: 0  eig: 0.000000  rCut: 1.3
    l: 1  eig: -0.194357  rCut: 1.3
    l: 1  eig: 0.000000  rCut: 1.3
  Partial core density with radius 1.1
  Transforming core density to a uniform radial grid of dG=0.02 with 1464 points.
  Transforming local potential to a uniform radial grid of dG=0.02 with 1464 points.
  Transforming nonlocal projectors to a uniform radial grid of dG=0.02 with 432 points.
  Transforming density augmentations to a uniform radial grid of dG=0.02 with 1464 points.
  Transforming atomic orbitals to a uniform radial grid of dG=0.02 with 432 points.
  Core radius for overlap checks: 1.30 bohrs.

Reading pseudopotential file '/projects/musgravc/apps/jdftx-1.6.0/build/pseudopotentials/GBRV_v1.5/n_pbe_v1.2.uspp':
  Title: N.  Created by USPP 7.3.6 on 3-2-2014
  Reference state energy: -9.763716.  5 valence electrons in orbitals:
    |200>  occupation: 2  eigenvalue: -0.681964
    |210>  occupation: 3  eigenvalue: -0.260726
  lMax: 1  lLocal: 2  QijEcut: 6
  4 projectors sampled on a log grid with 491 points:
    l: 0  eig: -0.681964  rCut: 1.15
    l: 0  eig: 0.000000  rCut: 1.15
    l: 1  eig: -0.260729  rCut: 1.2
    l: 1  eig: 0.500000  rCut: 1.2
  Partial core density with radius 0.8
  Transforming core density to a uniform radial grid of dG=0.02 with 1464 points.
  Transforming local potential to a uniform radial grid of dG=0.02 with 1464 points.
  Transforming nonlocal projectors to a uniform radial grid of dG=0.02 with 432 points.
  Transforming density augmentations to a uniform radial grid of dG=0.02 with 1464 points.
  Transforming atomic orbitals to a uniform radial grid of dG=0.02 with 432 points.
  Core radius for overlap checks: 1.20 bohrs.

Reading pseudopotential file '/projects/musgravc/apps/jdftx-1.6.0/build/pseudopotentials/GBRV_v1.5/ti_pbe_v1.4.uspp':
  Title: Ti.  Created by USPP 7.3.6 on 31-3-15
  Reference state energy: -59.020943.  12 valence electrons in orbitals:
    |300>  occupation: 2  eigenvalue: -2.777623
    |310>  occupation: 6  eigenvalue: -1.894596
    |400>  occupation: 2  eigenvalue: -0.438610
    |320>  occupation: 1  eigenvalue: -0.583119
  lMax: 2  lLocal: 3  QijEcut: 6
  6 projectors sampled on a log grid with 597 points:
    l: 0  eig: -2.777624  rCut: 1.8
    l: 0  eig: -0.438611  rCut: 1.8
    l: 1  eig: -1.894596  rCut: 1.8
    l: 1  eig: 0.500000  rCut: 1.8
    l: 2  eig: -0.583118  rCut: 1.8
    l: 2  eig: 0.150000  rCut: 1.8
  Partial core density with radius 0.8
  Transforming core density to a uniform radial grid of dG=0.02 with 1464 points.
  Transforming local potential to a uniform radial grid of dG=0.02 with 1464 points.
  Transforming nonlocal projectors to a uniform radial grid of dG=0.02 with 432 points.
  Transforming density augmentations to a uniform radial grid of dG=0.02 with 1464 points.
  Transforming atomic orbitals to a uniform radial grid of dG=0.02 with 432 points.
  Core radius for overlap checks: 1.80 bohrs.

Reading pseudopotential file '/projects/musgravc/apps/jdftx-1.6.0/build/pseudopotentials/GBRV_v1.5/o_pbe_v1.2.uspp':
  Title: O.  Created by USPP 7.3.6 on 3-2-2014
  Reference state energy: -15.894388.  6 valence electrons in orbitals:
    |200>  occupation: 2  eigenvalue: -0.878823
    |210>  occupation: 4  eigenvalue: -0.332131
  lMax: 2  lLocal: 2  QijEcut: 6
  5 projectors sampled on a log grid with 511 points:
    l: 0  eig: -0.878823  rCut: 1.25
    l: 0  eig: 0.000000  rCut: 1.25
    l: 1  eig: -0.332132  rCut: 1.25
    l: 1  eig: 0.000000  rCut: 1.25
    l: 2  eig: 1.000000  rCut: 1.25
  Partial core density with radius 0.7
  Transforming core density to a uniform radial grid of dG=0.02 with 1464 points.
  Transforming local potential to a uniform radial grid of dG=0.02 with 1464 points.
  Transforming nonlocal projectors to a uniform radial grid of dG=0.02 with 432 points.
  Transforming density augmentations to a uniform radial grid of dG=0.02 with 1464 points.
  Transforming atomic orbitals to a uniform radial grid of dG=0.02 with 432 points.
  Core radius for overlap checks: 1.25 bohrs.

Initialized 4 species with 51 total atoms.

Folded 1 k-points by 3x3x1 to 9 k-points.

---------- Setting up k-points, bands, fillings ----------
No reducable k-points. 
Computing the number of bands and number of electrons
Calculating initial fillings.
nElectrons: 218.000000   nBands: 131   nStates: 18

----- Setting up reduced wavefunction bases (one per k-point) -----
average nbasis = 86412.556 , ideal nbasis = 86404.907

----- Initializing Supercell corresponding to k-point mesh -----
Lattice vector linear combinations in supercell:
[   3   0   0  ]
[   0   3   0  ]
[   0   0   1  ]
Supercell lattice vectors:
[  70.3088  -35.2004  0  ]
[  0.053982  59.8255  0  ]
[  0  0  43.2563  ]

Initializing DFT-D3 calculator:
	Parameters set for gga-PBE functional
	s6:  1.000  s_r6:  1.217
	s8:  0.722  s_r8:  1.000
	Per-atom parameters loaded for:
	 C:  sqrtQ[a0]:  3.105  Rcov[a0]:  1.417  CN: [ 0.00 0.99 2.00 3.00 3.98 ]
	 N:  sqrtQ[a0]:  2.712  Rcov[a0]:  1.342  CN: [ 0.00 0.99 2.01 2.99 ]
	Ti:  sqrtQ[a0]:  6.288  Rcov[a0]:  2.305  CN: [ 0.00 1.83 3.87 ]
	 O:  sqrtQ[a0]:  2.594  Rcov[a0]:  1.191  CN: [ 0.00 0.99 1.99 ]

Initializing DFT-D2 calculator for fluid / solvation:
	 C:  C6:   30.35 Eh-a0^6  R0: 2.744 a0
	 N:  C6:   21.33 Eh-a0^6  R0: 2.640 a0
	Ti:  C6:  187.33 Eh-a0^6  R0: 2.952 a0
	 O:  C6:   12.14 Eh-a0^6  R0: 2.536 a0

---------- Setting up ewald sum ----------
Optimum gaussian width for ewald sums = 5.644362 bohr.
Real space sum over 567 unit cells with max indices [  4  4  3  ]
Reciprocal space sum over 7803 terms with max indices [  8  8  13  ]

Computing DFT-D3 correction:
# coordination-number C 3.302 3.323 3.334 3.331 3.313 3.290 3.330 3.586 3.328 3.313 3.302 3.329 3.302 3.300 3.322 3.593 3.260 3.300 3.319 3.334 3.328 3.303 3.305 3.328 3.334 3.320 3.301 3.269 3.575 3.323 3.302 3.305 3.316 3.300 3.312 3.327 3.579 3.315 3.287 3.312 3.331 3.334 3.323 3.301 2.007
# coordination-number N 3.173 3.172 3.182 3.179
# coordination-number Ti 6.477
# coordination-number O 1.028
# diagonal-C6 C 24.26 24.05 23.93 23.96 24.16 24.38 23.97 20.45 24.00 24.16 24.26 23.98 24.26 24.29 24.06 20.37 24.63 24.28 24.10 23.93 24.00 24.25 24.24 23.99 23.93 24.08 24.27 24.56 20.59 24.05 24.27 24.23 24.12 24.28 24.17 24.01 20.53 24.13 24.41 24.17 23.96 23.93 24.05 24.27 29.47
# diagonal-C6 N 15.60 15.60 15.60 15.60
# diagonal-C6 Ti 321.59
# diagonal-C6 O 12.79
EvdW_6 =   -0.038395
EvdW_8 =   -0.031217

---------- Allocating electronic variables ----------
Initializing wave functions:  linear combination of atomic orbitals
C pseudo-atom occupations:   s ( 2 )  p ( 2 )
N pseudo-atom occupations:   s ( 2 )  p ( 3 )
Ti pseudo-atom occupations:   s ( 2 0 )  p ( 6 )  d ( 4 )
O pseudo-atom occupations:   s ( 2 )  p ( 4 )
	FillingsUpdate:  mu: -0.127200000  nElectrons: 218.000000  magneticMoment: [ Abs: 0.00431  Tot: +0.00001 ]
LCAOMinimize: Iter:   0  G: -338.7910670156684318  |grad|_K:  3.293e-03  alpha:  1.000e+00
	FillingsUpdate:  mu: -0.127200000  nElectrons: 218.000000  magneticMoment: [ Abs: 0.00426  Tot: -0.00000 ]
LCAOMinimize: Iter:   1  G: -339.2814251029013235  |grad|_K:  1.844e-03  alpha:  8.933e-02  linmin: -1.395e-01  cgtest:  1.330e+00  t[s]:    278.74
LCAOMinimize: Encountered beta<0, resetting CG.
LCAOMinimize: 	Predicted alpha/alphaT>3.000000, increasing alphaT to 2.679896e-01.
	FillingsUpdate:  mu: -0.127200000  nElectrons: 218.000000  magneticMoment: [ Abs: 0.00428  Tot: -0.00019 ]
LCAOMinimize: Iter:   2  G: -339.8131721241408059  |grad|_K:  1.219e-03  alpha:  2.083e-01  linmin: -3.999e-02  cgtest:  7.050e-01  t[s]:    418.54
LCAOMinimize: Encountered beta<0, resetting CG.
LCAOMinimize: 	Wrong curvature in test step, increasing alphaT to 6.250265e-01.
	FillingsUpdate:  mu: -0.127200000  nElectrons: 218.000000  magneticMoment: [ Abs: 0.00433  Tot: -0.00024 ]
LCAOMinimize: Iter:   3  G: -340.1087849945764674  |grad|_K:  1.355e-03  alpha: -5.437e-01  linmin: -7.706e-02  cgtest:  4.857e-01  t[s]:    529.61
	FillingsUpdate:  mu: -0.127200000  nElectrons: 218.000000  magneticMoment: [ Abs: 0.00446  Tot: -0.00044 ]
LCAOMinimize: Iter:   4  G: -340.2705079050810468  |grad|_K:  1.577e-03  alpha:  5.834e-02  linmin: -4.603e-02  cgtest:  1.090e-01  t[s]:    642.44
	FillingsUpdate:  mu: -0.127200000  nElectrons: 218.000000  magneticMoment: [ Abs: 0.00448  Tot: -0.00043 ]
LCAOMinimize: Iter:   5  G: -340.3630787353757796  |grad|_K:  1.436e-03  alpha:  1.887e-02  linmin: -5.993e-02  cgtest:  1.047e+00  t[s]:    755.43
LCAOMinimize: Encountered beta<0, resetting CG.
LCAOMinimize: 	Predicted alpha/alphaT>3.000000, increasing alphaT to 5.662462e-02.
	FillingsUpdate:  mu: -0.127200000  nElectrons: 218.000000  magneticMoment: [ Abs: 0.00435  Tot: -0.00017 ]
LCAOMinimize: Iter:   6  G: -340.4310627239790961  |grad|_K:  9.807e-04  alpha:  8.026e-02  linmin: -1.366e-02  cgtest:  1.393e-01  t[s]:    897.08
	FillingsUpdate:  mu: -0.127200000  nElectrons: 218.000000  magneticMoment: [ Abs: 0.00449  Tot: -0.00039 ]
LCAOMinimize: Iter:   7  G: -340.4676728764444533  |grad|_K:  5.714e-04  alpha:  1.008e-01  linmin:  7.431e-02  cgtest: -8.060e-01  t[s]:   1010.07
LCAOMinimize: 	Bad step direction: g.d > 0.
LCAOMinimize: 	Undoing step.
LCAOMinimize: 	Step failed: resetting search direction.
	FillingsUpdate:  mu: -0.127200000  nElectrons: 218.000000  magneticMoment: [ Abs: 0.00449  Tot: -0.00039 ]
LCAOMinimize: Iter:   8  G: -340.4676728764444533  |grad|_K:  5.714e-04  alpha:  0.000e+00
	FillingsUpdate:  mu: -0.127200000  nElectrons: 218.000000  magneticMoment: [ Abs: 0.00447  Tot: -0.00033 ]
LCAOMinimize: Iter:   9  G: -340.4758172523531243  |grad|_K:  1.515e-04  alpha:  5.683e-02  linmin: -5.422e-02  cgtest:  2.553e-01  t[s]:   1207.48
	FillingsUpdate:  mu: -0.127200000  nElectrons: 218.000000  magneticMoment: [ Abs: 0.00459  Tot: -0.00046 ]
LCAOMinimize: Iter:  10  G: -340.4777937475487875  |grad|_K:  7.147e-05  alpha:  1.676e-01  linmin: -2.201e-01  cgtest:  8.456e-01  t[s]:   1319.66
LCAOMinimize: Encountered beta<0, resetting CG.
	FillingsUpdate:  mu: -0.127200000  nElectrons: 218.000000  magneticMoment: [ Abs: 0.00485  Tot: -0.00074 ]
LCAOMinimize: Iter:  11  G: -340.4784721447064157  |grad|_K:  3.972e-05  alpha:  2.851e-01  linmin: -1.886e-01  cgtest:  6.960e-01  t[s]:   1433.27
LCAOMinimize: Encountered beta<0, resetting CG.
	FillingsUpdate:  mu: -0.127200000  nElectrons: 218.000000  magneticMoment: [ Abs: 0.00547  Tot: -0.00138 ]
LCAOMinimize: Iter:  12  G: -340.4787812716774624  |grad|_K:  4.092e-05  alpha:  4.438e-01  linmin: -1.939e-02  cgtest:  2.639e-01  t[s]:   1546.43
	FillingsUpdate:  mu: -0.127200000  nElectrons: 218.000000  magneticMoment: [ Abs: 0.00581  Tot: -0.00174 ]
LCAOMinimize: Iter:  13  G: -340.4788340943315461  |grad|_K:  2.477e-05  alpha:  7.704e-02  linmin: -7.524e-03  cgtest: -2.542e-01  t[s]:   1659.66
	FillingsUpdate:  mu: -0.127200000  nElectrons: 218.000000  magneticMoment: [ Abs: 0.00627  Tot: -0.00219 ]
LCAOMinimize: Iter:  14  G: -340.4788580874570130  |grad|_K:  1.881e-05  alpha:  8.323e-02  linmin: -3.681e-02  cgtest:  9.622e-01  t[s]:   1771.84
LCAOMinimize: Encountered beta<0, resetting CG.
	FillingsUpdate:  mu: -0.127200000  nElectrons: 218.000000  magneticMoment: [ Abs: 0.00652  Tot: -0.00242 ]
LCAOMinimize: Iter:  15  G: -340.4788666815290412  |grad|_K:  1.133e-05  alpha:  6.265e-02  linmin: -1.032e-02  cgtest:  9.147e-02  t[s]:   1885.04
	FillingsUpdate:  mu: -0.127200000  nElectrons: 218.000000  magneticMoment: [ Abs: 0.00737  Tot: -0.00325 ]
LCAOMinimize: Iter:  16  G: -340.4788769043097432  |grad|_K:  7.953e-06  alpha:  1.367e-01  linmin: -1.308e-01  cgtest:  9.589e-01  t[s]:   1997.92
LCAOMinimize: Encountered beta<0, resetting CG.
	FillingsUpdate:  mu: -0.127200000  nElectrons: 218.000000  magneticMoment: [ Abs: 0.00879  Tot: -0.00461 ]
LCAOMinimize: Iter:  17  G: -340.4788825657334428  |grad|_K:  1.158e-05  alpha:  2.078e-01  linmin: -8.903e-03  cgtest:  1.430e-01  t[s]:   2110.96
	FillingsUpdate:  mu: -0.127200000  nElectrons: 218.000000  magneticMoment: [ Abs: 0.01258  Tot: -0.00814 ]
LCAOMinimize: Iter:  18  G: -340.4788932395904908  |grad|_K:  7.547e-06  alpha:  1.690e-01  linmin: -1.084e-03  cgtest: -6.978e-01  t[s]:   2224.68
	FillingsUpdate:  mu: -0.127200000  nElectrons: 218.000000  magneticMoment: [ Abs: 0.01528  Tot: -0.01064 ]
LCAOMinimize: Iter:  19  G: -340.4788943069559650  |grad|_K:  3.163e-06  alpha:  7.079e-02  linmin: -1.371e-02  cgtest:  8.677e-01  t[s]:   2338.21
LCAOMinimize: Encountered beta<0, resetting CG.
LCAOMinimize: 	Step increased G by 5.344720e-08, reducing alpha to 2.238717e-03.
LCAOMinimize: 	Step increased G by 3.209834e-09, reducing alpha to 2.238717e-04.
LCAOMinimize: 	Step increased G by 2.672209e-10, reducing alpha to 2.238717e-05.
LCAOMinimize: 	Step failed to reduce G after 3 attempts. Quitting step.
LCAOMinimize: 	Undoing step.
LCAOMinimize: 	Step failed along negative gradient direction.
LCAOMinimize: Probably at roundoff error limit. (Stopping)
----- createFluidSolver() ----- (Fluid-side solver setup)
   Initializing fluid molecule 'H2O'
     Initializing site 'O'
       Electron density: proportional to exp(-r/0.36935)*erfc((r-0.51523)/0.36823) with norm 6.826
       Charge density: gaussian nuclear width 0.478731 with net site charge 0.826
       Polarizability: cuspless exponential with width 0.32 and norm 3.73
       Hard sphere radius: 2.57003 bohrs
       Positions in reference frame:
         [ +0.000000 +0.000000 +0.000000 ]
     Initializing site 'H'
       Electron density: proportional to exp(-r/0.34641)*erfc((r-0)/0.390882) with norm 0.587
       Charge density: gaussian nuclear width 0.377945 with net site charge -0.413
       Polarizability: cuspless exponential with width 0.39 and norm 3.3
       Positions in reference frame:
         [ +0.000000 -1.441945 +1.122523 ]
         [ +0.000000 +1.441945 +1.122523 ]
     Net charge: 0   dipole magnitude: 0.927204
     Initializing spherical shell mfKernel with radius 2.61727 Bohr
     deltaS corrections:
       site 'O': -7.54299
       site 'H': -6.83917
   Initializing fluid molecule 'Na+'
     Initializing site 'Na'
       Electron density: proportional to exp(-r/0.19682)*erfc((r-0.71491)/0.41314) with norm 8.1383
       Charge density: gaussian nuclear width 0.365347 with net site charge -1
       Hard sphere radius: 1.86327 bohrs
       Positions in reference frame:
         [ +0.000000 +0.000000 +0.000000 ]
     Net charge: -1   dipole magnitude: 0
     Initializing gaussian mfKernel with width: 1.55004 Bohr
     deltaS corrections:
       site 'Na': -22.3555
   Initializing fluid molecule 'F-'
     Initializing site 'F'
       Electron density: proportional to exp(-r/0.38886)*erfc((r-0)/0.438782) with norm 8
       Charge density: gaussian nuclear width 0.374796 with net site charge 1
       Hard sphere radius: 2.39995 bohrs
       Positions in reference frame:
         [ +0.000000 +0.000000 +0.000000 ]
     Net charge: 1   dipole magnitude: 0
     Initializing gaussian mfKernel with width: 1.59012 Bohr
     deltaS corrections:
       site 'F': -9.04335

Correction to mu due to finite nuclear width = -0.0106944
   Cavity determined by nc: 0.00142 and sigma: 0.707107
   Nonlocal vdW cavity from gaussian model electron density with norm = 8 and sigma = 0.993594 bohr
   Charge asymmetry in cavity with sensitivity pCavity = 36.5 e-bohr/Eh
   Electrostatic cavity expanded by eta = 1.46 bohrs
   Weighted density cavitation model constrained by Nbulk: 0.0049383 bohr^-3, Pvap: 3.14029 kPa, Rvdw: 2.61727 bohr and sigmaBulk: 4.62e-05 Eh/bohr^2 at T: 298 K.
   Weighted density dispersion model using vdW pair potentials with single solvent site with sqrtC6eff: 0.77 SI.
WARNING: Vibrations: switching off translationSym and rotationSym since useConstraints is on.

---- Citations for features of the code used in this run ----

   Software package:
      R. Sundararaman, K. Letchworth-Weaver, K.A. Schwarz, D. Gunceler, Y. Ozhabes and T.A. Arias, 'JDFTx: software for joint density-functional theory', SoftwareX 6, 278 (2017)

   gga-PBE exchange-correlation functional:
      J.P. Perdew, K. Burke and M. Ernzerhof, Phys. Rev. Lett. 77, 3865 (1996)

   Pseudopotentials:
      KF Garrity, JW Bennett, KM Rabe and D Vanderbilt, Comput. Mater. Sci. 81, 446 (2014)

   DFT-D3 dispersion correction:
      S. Grimme, J. Antony, S. Ehrlich and H. Krieg, J. Chem. Phys. 132, 154104 (2010)

   DFT-D2 dispersion correction:
      S. Grimme, J. Comput. Chem. 27, 1787 (2006)

   Charge-asymmetric nonlocally-determined local-electric (CANDLE) solvation model:
      R. Sundararaman and W.A. Goddard III, J. Chem. Phys. 142, 064107 (2015)

   Total energy minimization with Auxiliary Hamiltonian:
      C. Freysoldt, S. Boeck, and J. Neugebauer, Phys. Rev. B 79, 241103(R) (2009)

   Grand-canonical (fixed-potential) DFT:
      R. Sundararaman, W. A. Goddard III and T. A. Arias, J. Chem. Phys. 146, 114104 (2017)

   Linear-tetrahedron sampling for density of states:
      G. Lehmann and M. Taut, Phys. status solidi (b) 54, 469 (1972)

This list may not be complete. Please suggest additional citations or
report any other bugs at https://github.com/shankar1729/jdftx/issues

Initialization completed successfully at t[s]:   2718.58

------ Vibrations::calculate() -------
WARNING: Vibrations module is experimental. Please report bugs!
Compare results with and without symmetries and report discrepancies.
Degrees of freedom: 6 total, 6 symmetry-independent.

Computing DFT-D3 correction:
# coordination-number C 3.302 3.323 3.334 3.331 3.313 3.290 3.330 3.586 3.328 3.313 3.302 3.329 3.302 3.300 3.322 3.593 3.260 3.300 3.319 3.334 3.328 3.303 3.305 3.328 3.334 3.320 3.301 3.269 3.575 3.323 3.302 3.305 3.316 3.300 3.312 3.327 3.579 3.315 3.287 3.312 3.331 3.334 3.323 3.301 2.007
# coordination-number N 3.173 3.172 3.182 3.179
# coordination-number Ti 6.477
# coordination-number O 1.028
# diagonal-C6 C 24.26 24.05 23.93 23.96 24.16 24.38 23.97 20.45 24.00 24.16 24.26 23.98 24.26 24.29 24.06 20.37 24.63 24.28 24.10 23.93 24.00 24.25 24.24 23.99 23.93 24.08 24.27 24.56 20.59 24.05 24.27 24.23 24.12 24.28 24.17 24.01 20.53 24.13 24.41 24.17 23.96 23.93 24.05 24.27 29.47
# diagonal-C6 N 15.60 15.60 15.60 15.60
# diagonal-C6 Ti 321.59
# diagonal-C6 O 12.79
EvdW_6 =   -0.038395
EvdW_8 =   -0.031217
Fluid solver invoked on fresh (random / LCAO) wavefunctions
Running a vacuum solve first:

-------- Initial electronic minimization -----------
	FillingsUpdate:  mu: -0.197671658  nElectrons: 218.000000  magneticMoment: [ Abs: 0.01528  Tot: -0.01064 ]
ElecMinimize: Iter:   0  G: -340.479415763938619  |grad|_K:  1.436e-04  alpha:  1.000e+00
	FillingsUpdate:  mu: -0.142160558  nElectrons: 218.000000  magneticMoment: [ Abs: 0.03049  Tot: -0.02608 ]
	SubspaceRotationAdjust: set factor to 1
ElecMinimize: Iter:   1  G: -343.330023651265265  |grad|_K:  5.628e-05  alpha:  6.876e-01  linmin:  5.367e-04  t[s]:   2896.02
	FillingsUpdate:  mu: -0.064665043  nElectrons: 218.000000  magneticMoment: [ Abs: 0.06400  Tot: -0.06244 ]
	SubspaceRotationAdjust: set factor to 0.675
ElecMinimize: Iter:   2  G: -343.397945889207563  |grad|_K:  4.290e-05  alpha:  9.896e-02  linmin: -5.391e-04  t[s]:   3004.32
ElecMinimize: 	Predicted alpha/alphaT>3.000000, increasing alphaT to 2.968786e-01.
	FillingsUpdate:  mu: -0.109318877  nElectrons: 218.000000  magneticMoment: [ Abs: 0.11564  Tot: -0.10916 ]
	SubspaceRotationAdjust: set factor to 0.424
ElecMinimize: Iter:   3  G: -343.569727688088676  |grad|_K:  2.279e-05  alpha:  3.970e-01  linmin: -4.311e-05  t[s]:   3139.49
	FillingsUpdate:  mu: -0.071047109  nElectrons: 218.000000  magneticMoment: [ Abs: 0.24480  Tot: -0.23696 ]
	SubspaceRotationAdjust: set factor to 0.247
ElecMinimize: Iter:   4  G: -343.610704127916790  |grad|_K:  1.512e-05  alpha:  3.799e-01  linmin:  7.589e-05  t[s]:   3246.86
	FillingsUpdate:  mu: -0.104186449  nElectrons: 218.000000  magneticMoment: [ Abs: 0.35471  Tot: -0.33840 ]
	SubspaceRotationAdjust: set factor to 0.237
ElecMinimize: Iter:   5  G: -343.631016331862156  |grad|_K:  1.095e-05  alpha:  4.485e-01  linmin: -5.527e-05  t[s]:   3355.09
	FillingsUpdate:  mu: -0.088611600  nElectrons: 218.000000  magneticMoment: [ Abs: 0.48971  Tot: -0.46618 ]
	SubspaceRotationAdjust: set factor to 0.297
ElecMinimize: Iter:   6  G: -343.641939225520957  |grad|_K:  6.387e-06  alpha:  4.395e-01  linmin:  2.386e-07  t[s]:   3462.83
	FillingsUpdate:  mu: -0.076530830  nElectrons: 218.000000  magneticMoment: [ Abs: 0.70254  Tot: -0.67441 ]
	SubspaceRotationAdjust: set factor to 0.285
ElecMinimize: Iter:   7  G: -343.647290408416552  |grad|_K:  5.107e-06  alpha:  6.464e-01  linmin:  2.652e-04  t[s]:   3570.45
	FillingsUpdate:  mu: -0.084867434  nElectrons: 218.000000  magneticMoment: [ Abs: 0.86849  Tot: -0.83665 ]
	SubspaceRotationAdjust: set factor to 0.337
ElecMinimize: Iter:   8  G: -343.649347793375853  |grad|_K:  3.746e-06  alpha:  3.941e-01  linmin:  1.006e-05  t[s]:   3678.20
	FillingsUpdate:  mu: -0.088297287  nElectrons: 218.000000  magneticMoment: [ Abs: 1.28495  Tot: -1.24491 ]
	SubspaceRotationAdjust: set factor to 0.406
ElecMinimize: Iter:   9  G: -343.651777393422378  |grad|_K:  4.156e-06  alpha:  8.766e-01  linmin:  1.732e-04  t[s]:   3786.18
	FillingsUpdate:  mu: -0.082984740  nElectrons: 218.000000  magneticMoment: [ Abs: 1.55473  Tot: -1.49434 ]
	SubspaceRotationAdjust: set factor to 0.466
ElecMinimize: Iter:  10  G: -343.653172773605661  |grad|_K:  3.791e-06  alpha:  4.368e-01  linmin:  8.224e-05  t[s]:   3894.39
	FillingsUpdate:  mu: -0.085050591  nElectrons: 218.000000  magneticMoment: [ Abs: 1.66821  Tot: -1.56362 ]
	SubspaceRotationAdjust: set factor to 0.556
ElecMinimize: Iter:  11  G: -343.654324706617558  |grad|_K:  2.749e-06  alpha:  4.128e-01  linmin: -1.962e-04  t[s]:   4002.42
	FillingsUpdate:  mu: -0.087862668  nElectrons: 218.000000  magneticMoment: [ Abs: 1.73310  Tot: -1.59041 ]
	SubspaceRotationAdjust: set factor to 0.586
ElecMinimize: Iter:  12  G: -343.655058961562190  |grad|_K:  2.346e-06  alpha:  4.389e-01  linmin: -1.057e-04  t[s]:   4109.77
	FillingsUpdate:  mu: -0.083605724  nElectrons: 218.000000  magneticMoment: [ Abs: 1.82027  Tot: -1.65992 ]
	SubspaceRotationAdjust: set factor to 0.471
ElecMinimize: Iter:  13  G: -343.655527789862504  |grad|_K:  1.967e-06  alpha:  3.953e-01  linmin:  2.754e-04  t[s]:   4218.43
	FillingsUpdate:  mu: -0.086342495  nElectrons: 218.000000  magneticMoment: [ Abs: 1.85865  Tot: -1.67887 ]
	SubspaceRotationAdjust: set factor to 0.619
ElecMinimize: Iter:  14  G: -343.655811436068007  |grad|_K:  1.219e-06  alpha:  3.826e-01  linmin: -5.025e-05  t[s]:   4326.22
	FillingsUpdate:  mu: -0.088178995  nElectrons: 218.000000  magneticMoment: [ Abs: 1.86576  Tot: -1.67099 ]
	SubspaceRotationAdjust: set factor to 0.579
ElecMinimize: Iter:  15  G: -343.655953008978827  |grad|_K:  1.201e-06  alpha:  4.647e-01  linmin:  2.862e-05  t[s]:   4434.76
	FillingsUpdate:  mu: -0.086366260  nElectrons: 218.000000  magneticMoment: [ Abs: 1.88431  Tot: -1.68553 ]
	SubspaceRotationAdjust: set factor to 0.523
ElecMinimize: Iter:  16  G: -343.656037550540930  |grad|_K:  7.641e-07  alpha:  2.900e-01  linmin:  3.007e-06  t[s]:   4543.37
	FillingsUpdate:  mu: -0.085941548  nElectrons: 218.000000  magneticMoment: [ Abs: 1.88801  Tot: -1.68460 ]
	SubspaceRotationAdjust: set factor to 0.633
ElecMinimize: Iter:  17  G: -343.656097276558683  |grad|_K:  6.092e-07  alpha:  5.018e-01  linmin: -3.863e-06  t[s]:   4651.50
	FillingsUpdate:  mu: -0.086983633  nElectrons: 218.000000  magneticMoment: [ Abs: 1.87770  Tot: -1.66913 ]
	SubspaceRotationAdjust: set factor to 0.561
ElecMinimize: Iter:  18  G: -343.656129265275240  |grad|_K:  5.216e-07  alpha:  4.222e-01  linmin: -1.834e-06  t[s]:   4759.77
	FillingsUpdate:  mu: -0.086388709  nElectrons: 218.000000  magneticMoment: [ Abs: 1.87421  Tot: -1.66560 ]
	SubspaceRotationAdjust: set factor to 0.556
ElecMinimize: Iter:  19  G: -343.656147002165994  |grad|_K:  3.631e-07  alpha:  3.192e-01  linmin:  1.010e-06  t[s]:   4867.99
	FillingsUpdate:  mu: -0.086406178  nElectrons: 218.000000  magneticMoment: [ Abs: 1.86577  Tot: -1.65807 ]
	SubspaceRotationAdjust: set factor to 0.611
ElecMinimize: Iter:  20  G: -343.656161706290789  |grad|_K:  2.762e-07  alpha:  5.474e-01  linmin:  2.754e-06  t[s]:   4975.93
	FillingsUpdate:  mu: -0.086654367  nElectrons: 218.000000  magneticMoment: [ Abs: 1.85864  Tot: -1.65230 ]
	SubspaceRotationAdjust: set factor to 0.622
ElecMinimize: Iter:  21  G: -343.656168866363544  |grad|_K:  2.496e-07  alpha:  4.608e-01  linmin: -5.704e-06  t[s]:   5083.96
	FillingsUpdate:  mu: -0.086254791  nElectrons: 218.000000  magneticMoment: [ Abs: 1.85589  Tot: -1.65172 ]
	SubspaceRotationAdjust: set factor to 0.538
ElecMinimize: Iter:  22  G: -343.656172925898488  |grad|_K:  1.729e-07  alpha:  3.193e-01  linmin: -3.214e-08  t[s]:   5192.45
	FillingsUpdate:  mu: -0.086430497  nElectrons: 218.000000  magneticMoment: [ Abs: 1.85137  Tot: -1.64856 ]
	SubspaceRotationAdjust: set factor to 0.542
ElecMinimize: Iter:  23  G: -343.656175645572432  |grad|_K:  1.216e-07  alpha:  4.460e-01  linmin:  1.204e-06  t[s]:   5300.47
	FillingsUpdate:  mu: -0.086515437  nElectrons: 218.000000  magneticMoment: [ Abs: 1.84950  Tot: -1.64802 ]
	SubspaceRotationAdjust: set factor to 0.605
ElecMinimize: Iter:  24  G: -343.656177178726523  |grad|_K:  9.728e-08  alpha:  5.085e-01  linmin:  2.219e-07  t[s]:   5409.19
	FillingsUpdate:  mu: -0.086325367  nElectrons: 218.000000  magneticMoment: [ Abs: 1.84991  Tot: -1.64950 ]
	SubspaceRotationAdjust: set factor to 0.517
ElecMinimize: Iter:  25  G: -343.656177910801830  |grad|_K:  7.992e-08  alpha:  3.793e-01  linmin: -4.160e-08  t[s]:   5517.37
	FillingsUpdate:  mu: -0.086409526  nElectrons: 218.000000  magneticMoment: [ Abs: 1.84940  Tot: -1.64945 ]
	SubspaceRotationAdjust: set factor to 0.538
ElecMinimize: Iter:  26  G: -343.656178475914203  |grad|_K:  5.670e-08  alpha:  4.339e-01  linmin: -1.692e-06  t[s]:   5625.59
	FillingsUpdate:  mu: -0.086437858  nElectrons: 218.000000  magneticMoment: [ Abs: 1.84976  Tot: -1.65012 ]
	SubspaceRotationAdjust: set factor to 0.601
ElecMinimize: Iter:  27  G: -343.656178820529533  |grad|_K:  4.078e-08  alpha:  5.255e-01  linmin:  1.807e-06  t[s]:   5733.79
	FillingsUpdate:  mu: -0.086396318  nElectrons: 218.000000  magneticMoment: [ Abs: 1.85069  Tot: -1.65123 ]
	SubspaceRotationAdjust: set factor to 0.569
ElecMinimize: Iter:  28  G: -343.656178988113254  |grad|_K:  3.559e-08  alpha:  4.943e-01  linmin:  8.279e-07  t[s]:   5841.66
	FillingsUpdate:  mu: -0.086446985  nElectrons: 218.000000  magneticMoment: [ Abs: 1.85094  Tot: -1.65133 ]
	SubspaceRotationAdjust: set factor to 0.541
ElecMinimize: Iter:  29  G: -343.656179086433212  |grad|_K:  2.689e-08  alpha:  3.808e-01  linmin:  9.994e-07  t[s]:   5950.23
	FillingsUpdate:  mu: -0.086416212  nElectrons: 218.000000  magneticMoment: [ Abs: 1.85134  Tot: -1.65159 ]
	SubspaceRotationAdjust: set factor to 0.51
ElecMinimize: Iter:  30  G: -343.656179145779561  |grad|_K:  1.866e-08  alpha:  4.023e-01  linmin: -1.495e-06  t[s]:   6058.99
ElecMinimize: Converged (|Delta G|<1.000000e-07 for 2 iters).
Setting wave functions to eigenvectors of Hamiltonian
Converging empty states (this may take a while): |deigs|: 6.890e-03
Vacuum energy after initial minimize, F = -343.656179145779561

Shifting auxilliary hamiltonian by -0.040784 to set nElectrons=218.000000

-------- Electronic minimization -----------
	Linear fluid (dielectric constant: 78.4, screening length: 8.12261 Bohr) occupying 0.726748 of unit cell:	Completed after 22 iterations at t[s]:   6681.93
	FillingsUpdate:  mu: -0.127200000  nElectrons: 218.000000  magneticMoment: [ Abs: 1.85137  Tot: -1.65137 ]
ElecMinimize: Iter:   0  G: -343.649580145013147  |grad|_K:  8.314e-06  alpha:  1.000e+00
	Linear fluid (dielectric constant: 78.4, screening length: 8.12261 Bohr) occupying 0.728485 of unit cell:	Completed after 18 iterations at t[s]:   6785.44
	Linear fluid (dielectric constant: 78.4, screening length: 8.12261 Bohr) occupying 0.727400 of unit cell:	Completed after 16 iterations at t[s]:   6829.97
	FillingsUpdate:  mu: -0.127200000  nElectrons: 218.267221  magneticMoment: [ Abs: 2.00422  Tot: -1.82308 ]
	SubspaceRotationAdjust: set factor to 0.382
ElecMinimize: Iter:   1  G: -343.651923386662759  |grad|_K:  5.101e-06  alpha:  5.184e-01  linmin:  4.469e-05  t[s]:   6878.10
	Linear fluid (dielectric constant: 78.4, screening length: 8.12261 Bohr) occupying 0.727508 of unit cell:	Completed after 15 iterations at t[s]:   6927.64
	Linear fluid (dielectric constant: 78.4, screening length: 8.12261 Bohr) occupying 0.727449 of unit cell:	Completed after 11 iterations at t[s]:   6969.34
	FillingsUpdate:  mu: -0.127200000  nElectrons: 218.300609  magneticMoment: [ Abs: 2.01065  Tot: -1.85322 ]
	SubspaceRotationAdjust: set factor to 0.248
ElecMinimize: Iter:   2  G: -343.653445863456056  |grad|_K:  2.277e-06  alpha:  2.945e-01  linmin:  5.525e-05  t[s]:   7017.01
	Linear fluid (dielectric constant: 78.4, screening length: 8.12261 Bohr) occupying 0.727471 of unit cell:	Completed after 10 iterations at t[s]:   7063.42
	Linear fluid (dielectric constant: 78.4, screening length: 8.12261 Bohr) occupying 0.727508 of unit cell:	Completed after 10 iterations at t[s]:   7103.80
	FillingsUpdate:  mu: -0.127200000  nElectrons: 218.368130  magneticMoment: [ Abs: 2.04591  Tot: -1.91227 ]
	SubspaceRotationAdjust: set factor to 0.294
ElecMinimize: Iter:   3  G: -343.654042019493886  |grad|_K:  1.350e-06  alpha:  5.791e-01  linmin:  2.036e-04  t[s]:   7152.04
	Linear fluid (dielectric constant: 78.4, screening length: 8.12261 Bohr) occupying 0.727536 of unit cell:	Completed after 10 iterations at t[s]:   7197.93
	Linear fluid (dielectric constant: 78.4, screening length: 8.12261 Bohr) occupying 0.727540 of unit cell:	Completed after 3 iterations at t[s]:   7233.96
	FillingsUpdate:  mu: -0.127200000  nElectrons: 218.416002  magneticMoment: [ Abs: 2.07075  Tot: -1.94597 ]
	SubspaceRotationAdjust: set factor to 0.384
ElecMinimize: Iter:   4  G: -343.654293722665102  |grad|_K:  7.801e-07  alpha:  7.034e-01  linmin:  9.722e-06  t[s]:   7282.06
	Linear fluid (dielectric constant: 78.4, screening length: 8.12261 Bohr) occupying 0.727538 of unit cell:	Completed after 9 iterations at t[s]:   7327.73
	Linear fluid (dielectric constant: 78.4, screening length: 8.12261 Bohr) occupying 0.727539 of unit cell:	Completed after 3 iterations at t[s]:   7363.60
	FillingsUpdate:  mu: -0.127200000  nElectrons: 218.439242  magneticMoment: [ Abs: 2.08140  Tot: -1.95827 ]
	SubspaceRotationAdjust: set factor to 0.411
ElecMinimize: Iter:   5  G: -343.654368728433894  |grad|_K:  5.099e-07  alpha:  6.136e-01  linmin: -1.845e-04  t[s]:   7411.72
	Linear fluid (dielectric constant: 78.4, screening length: 8.12261 Bohr) occupying 0.727487 of unit cell:	Completed after 7 iterations at t[s]:   7455.43
	Linear fluid (dielectric constant: 78.4, screening length: 8.12261 Bohr) occupying 0.727492 of unit cell:	Completed after 2 iterations at t[s]:   7490.81
	FillingsUpdate:  mu: -0.127200000  nElectrons: 218.446412  magneticMoment: [ Abs: 2.08563  Tot: -1.96279 ]
	SubspaceRotationAdjust: set factor to 0.334
ElecMinimize: Iter:   6  G: -343.654399503779587  |grad|_K:  3.241e-07  alpha:  5.619e-01  linmin:  5.153e-05  t[s]:   7538.57
	Linear fluid (dielectric constant: 78.4, screening length: 8.12261 Bohr) occupying 0.727459 of unit cell:	Completed after 4 iterations at t[s]:   7580.72
	Linear fluid (dielectric constant: 78.4, screening length: 8.12261 Bohr) occupying 0.727452 of unit cell:	Completed after 3 iterations at t[s]:   7617.15
	FillingsUpdate:  mu: -0.127200000  nElectrons: 218.451704  magneticMoment: [ Abs: 2.08950  Tot: -1.96684 ]
	SubspaceRotationAdjust: set factor to 0.287
ElecMinimize: Iter:   7  G: -343.654413817736327  |grad|_K:  2.105e-07  alpha:  6.725e-01  linmin: -4.591e-05  t[s]:   7665.10
	Linear fluid (dielectric constant: 78.4, screening length: 8.12261 Bohr) occupying 0.727428 of unit cell:	Completed after 2 iterations at t[s]:   7705.63
	Linear fluid (dielectric constant: 78.4, screening length: 8.12261 Bohr) occupying 0.727431 of unit cell:	Completed after 1 iterations at t[s]:   7740.92
	FillingsUpdate:  mu: -0.127200000  nElectrons: 218.452467  magneticMoment: [ Abs: 2.09140  Tot: -1.96888 ]
	SubspaceRotationAdjust: set factor to 0.296
ElecMinimize: Iter:   8  G: -343.654419231338807  |grad|_K:  1.304e-07  alpha:  5.935e-01  linmin:  6.099e-05  t[s]:   7788.72
	Linear fluid (dielectric constant: 78.4, screening length: 8.12261 Bohr) occupying 0.727423 of unit cell:	Completed after 2 iterations at t[s]:   7829.36
	Linear fluid (dielectric constant: 78.4, screening length: 8.12261 Bohr) occupying 0.727423 of unit cell:	Completed after 0 iterations at t[s]:   7862.71
	FillingsUpdate:  mu: -0.127200000  nElectrons: 218.452643  magneticMoment: [ Abs: 2.09256  Tot: -1.97007 ]
	SubspaceRotationAdjust: set factor to 0.335
ElecMinimize: Iter:   9  G: -343.654421330921480  |grad|_K:  8.152e-08  alpha:  6.121e-01  linmin: -2.375e-04  t[s]:   7910.42
	Linear fluid (dielectric constant: 78.4, screening length: 8.12261 Bohr) occupying 0.727422 of unit cell:	Completed after 2 iterations at t[s]:   7951.52
	Linear fluid (dielectric constant: 78.4, screening length: 8.12261 Bohr) occupying 0.727422 of unit cell:	Completed after 0 iterations at t[s]:   7984.95
	FillingsUpdate:  mu: -0.127200000  nElectrons: 218.452324  magneticMoment: [ Abs: 2.09344  Tot: -1.97093 ]
	SubspaceRotationAdjust: set factor to 0.388
ElecMinimize: Iter:  10  G: -343.654422489788146  |grad|_K:  5.266e-08  alpha:  8.068e-01  linmin: -8.304e-04  t[s]:   8033.04
	Linear fluid (dielectric constant: 78.4, screening length: 8.12261 Bohr) occupying 0.727426 of unit cell:	Completed after 1 iterations at t[s]:   8073.35
	Linear fluid (dielectric constant: 78.4, screening length: 8.12261 Bohr) occupying 0.727427 of unit cell:	Completed after 1 iterations at t[s]:   8108.12
	FillingsUpdate:  mu: -0.127200000  nElectrons: 218.452140  magneticMoment: [ Abs: 2.09413  Tot: -1.97156 ]
	SubspaceRotationAdjust: set factor to 0.443
ElecMinimize: Iter:  11  G: -343.654423100951476  |grad|_K:  4.329e-08  alpha:  1.022e+00  linmin: -1.846e-05  t[s]:   8155.82
	Linear fluid (dielectric constant: 78.4, screening length: 8.12261 Bohr) occupying 0.727432 of unit cell:	Completed after 2 iterations at t[s]:   8196.85
	Linear fluid (dielectric constant: 78.4, screening length: 8.12261 Bohr) occupying 0.727430 of unit cell:	Completed after 0 iterations at t[s]:   8231.08
	FillingsUpdate:  mu: -0.127200000  nElectrons: 218.452073  magneticMoment: [ Abs: 2.09435  Tot: -1.97174 ]
	SubspaceRotationAdjust: set factor to 0.458
ElecMinimize: Iter:  12  G: -343.654423273953000  |grad|_K:  3.730e-08  alpha:  4.719e-01  linmin:  3.927e-04  t[s]:   8278.64
	Linear fluid (dielectric constant: 78.4, screening length: 8.12261 Bohr) occupying 0.727430 of unit cell:	Completed after 2 iterations at t[s]:   8319.82
	Linear fluid (dielectric constant: 78.4, screening length: 8.12261 Bohr) occupying 0.727430 of unit cell:	Completed after 0 iterations at t[s]:   8353.31
	FillingsUpdate:  mu: -0.127200000  nElectrons: 218.451931  magneticMoment: [ Abs: 2.09441  Tot: -1.97180 ]
	SubspaceRotationAdjust: set factor to 0.38
ElecMinimize: Iter:  13  G: -343.654423352058473  |grad|_K:  2.833e-08  alpha:  3.103e-01  linmin:  4.237e-04  t[s]:   8400.93
	Linear fluid (dielectric constant: 78.4, screening length: 8.12261 Bohr) occupying 0.727430 of unit cell:	Completed after 0 iterations at t[s]:   8439.54
	Linear fluid (dielectric constant: 78.4, screening length: 8.12261 Bohr) occupying 0.727430 of unit cell:	Completed after 0 iterations at t[s]:   8471.58
	FillingsUpdate:  mu: -0.127200000  nElectrons: 218.451903  magneticMoment: [ Abs: 2.09444  Tot: -1.97179 ]
	SubspaceRotationAdjust: set factor to 0.539
ElecMinimize: Iter:  14  G: -343.654423418713009  |grad|_K:  2.248e-08  alpha:  4.454e-01  linmin: -1.080e-06  t[s]:   8519.32
ElecMinimize: Converged (|Delta G|<1.000000e-07 for 2 iters).
Setting wave functions to eigenvectors of Hamiltonian
Converging empty states (this may take a while): |deigs|: 3.860e-04
Single-point solvation energy estimate, DeltaG = +0.001755727066552

Computing DFT-D3 correction:
# coordination-number C 3.302 3.323 3.334 3.331 3.313 3.290 3.330 3.586 3.328 3.313 3.302 3.329 3.302 3.300 3.322 3.593 3.260 3.300 3.319 3.334 3.328 3.303 3.305 3.328 3.334 3.320 3.301 3.269 3.575 3.323 3.302 3.305 3.316 3.300 3.312 3.327 3.579 3.315 3.287 3.312 3.331 3.334 3.323 3.301 2.007
# coordination-number N 3.173 3.172 3.182 3.179
# coordination-number Ti 6.477
# coordination-number O 1.028
# diagonal-C6 C 24.26 24.05 23.93 23.96 24.16 24.38 23.97 20.45 24.00 24.16 24.26 23.98 24.26 24.29 24.06 20.37 24.63 24.28 24.10 23.93 24.00 24.25 24.24 23.99 23.93 24.08 24.27 24.56 20.59 24.05 24.27 24.23 24.12 24.28 24.17 24.01 20.53 24.13 24.41 24.17 23.96 23.93 24.05 24.27 29.47
# diagonal-C6 N 15.60 15.60 15.60 15.60
# diagonal-C6 Ti 321.59
# diagonal-C6 O 12.79
EvdW_6 =   -0.038395
EvdW_8 =   -0.031217
Completed 1 of 7 configurations.

Computing DFT-D3 correction:
# coordination-number C 3.302 3.323 3.334 3.331 3.313 3.290 3.330 3.586 3.328 3.313 3.302 3.329 3.302 3.300 3.322 3.593 3.260 3.300 3.319 3.334 3.328 3.303 3.305 3.328 3.334 3.320 3.301 3.269 3.575 3.323 3.302 3.305 3.316 3.300 3.312 3.327 3.579 3.315 3.287 3.312 3.331 3.334 3.323 3.301 2.007
# coordination-number N 3.173 3.172 3.182 3.179
# coordination-number Ti 6.477
# coordination-number O 1.028
# diagonal-C6 C 24.26 24.05 23.93 23.96 24.16 24.38 23.97 20.45 24.00 24.16 24.26 23.98 24.26 24.29 24.06 20.37 24.63 24.28 24.10 23.93 24.00 24.25 24.24 23.99 23.93 24.08 24.27 24.56 20.59 24.05 24.27 24.23 24.12 24.28 24.17 24.01 20.53 24.13 24.41 24.17 23.96 23.93 24.05 24.27 29.47
# diagonal-C6 N 15.60 15.60 15.60 15.60
# diagonal-C6 Ti 321.59
# diagonal-C6 O 12.79
EvdW_6 =   -0.038395
EvdW_8 =   -0.031218
Shifting auxilliary hamiltonian by 0.000016 to set nElectrons=218.451903

-------- Electronic minimization -----------
	Linear fluid (dielectric constant: 78.4, screening length: 8.12261 Bohr) occupying 0.727429 of unit cell:	Completed after 5 iterations at t[s]:   9034.74
	FillingsUpdate:  mu: -0.127200000  nElectrons: 218.451903  magneticMoment: [ Abs: 2.09443  Tot: -1.97167 ]
ElecMinimize: Iter:   0  G: -343.654402081819740  |grad|_K:  3.261e-07  alpha:  1.000e+00
	Linear fluid (dielectric constant: 78.4, screening length: 8.12261 Bohr) occupying 0.727431 of unit cell:	Completed after 4 iterations at t[s]:   9130.12
	Linear fluid (dielectric constant: 78.4, screening length: 8.12261 Bohr) occupying 0.727430 of unit cell:	Completed after 3 iterations at t[s]:   9165.99
	FillingsUpdate:  mu: -0.127200000  nElectrons: 218.451843  magneticMoment: [ Abs: 2.09430  Tot: -1.97162 ]
	SubspaceRotationAdjust: set factor to 0.478
ElecMinimize: Iter:   1  G: -343.654415565485408  |grad|_K:  2.353e-07  alpha:  6.213e-01  linmin:  3.534e-05  t[s]:   9213.37
	Linear fluid (dielectric constant: 78.4, screening length: 8.12261 Bohr) occupying 0.727440 of unit cell:	Completed after 5 iterations at t[s]:   9256.30
	Linear fluid (dielectric constant: 78.4, screening length: 8.12261 Bohr) occupying 0.727435 of unit cell:	Completed after 3 iterations at t[s]:   9292.90
	FillingsUpdate:  mu: -0.127200000  nElectrons: 218.452923  magneticMoment: [ Abs: 2.09441  Tot: -1.97161 ]
	SubspaceRotationAdjust: set factor to 0.426
ElecMinimize: Iter:   2  G: -343.654419230551980  |grad|_K:  1.072e-07  alpha:  3.265e-01  linmin:  5.364e-05  t[s]:   9340.55
	Linear fluid (dielectric constant: 78.4, screening length: 8.12261 Bohr) occupying 0.727437 of unit cell:	Completed after 1 iterations at t[s]:   9380.79
	Linear fluid (dielectric constant: 78.4, screening length: 8.12261 Bohr) occupying 0.727439 of unit cell:	Completed after 2 iterations at t[s]:   9416.58
	FillingsUpdate:  mu: -0.127200000  nElectrons: 218.453345  magneticMoment: [ Abs: 2.09438  Tot: -1.97156 ]
	SubspaceRotationAdjust: set factor to 0.518
ElecMinimize: Iter:   3  G: -343.654421051141469  |grad|_K:  5.803e-08  alpha:  7.748e-01  linmin: -8.614e-05  t[s]:   9466.33
	Linear fluid (dielectric constant: 78.4, screening length: 8.12261 Bohr) occupying 0.727437 of unit cell:	Completed after 1 iterations at t[s]:   9507.50
	Linear fluid (dielectric constant: 78.4, screening length: 8.12261 Bohr) occupying 0.727438 of unit cell:	Completed after 0 iterations at t[s]:   9542.08
	FillingsUpdate:  mu: -0.127200000  nElectrons: 218.453464  magneticMoment: [ Abs: 2.09432  Tot: -1.97153 ]
	SubspaceRotationAdjust: set factor to 0.537
ElecMinimize: Iter:   4  G: -343.654421519722121  |grad|_K:  3.277e-08  alpha:  6.703e-01  linmin:  2.657e-04  t[s]:   9590.09
	Linear fluid (dielectric constant: 78.4, screening length: 8.12261 Bohr) occupying 0.727439 of unit cell:	Completed after 1 iterations at t[s]:   9631.04
	Linear fluid (dielectric constant: 78.4, screening length: 8.12261 Bohr) occupying 0.727439 of unit cell:	Completed after 0 iterations at t[s]:   9667.15
	FillingsUpdate:  mu: -0.127200000  nElectrons: 218.453611  magneticMoment: [ Abs: 2.09429  Tot: -1.97152 ]
	SubspaceRotationAdjust: set factor to 0.581
ElecMinimize: Iter:   5  G: -343.654421652018186  |grad|_K:  1.927e-08  alpha:  6.358e-01  linmin: -6.387e-04  t[s]:   9715.72
	Linear fluid (dielectric constant: 78.4, screening length: 8.12261 Bohr) occupying 0.727439 of unit cell:	Completed after 1 iterations at t[s]:   9757.08
	Linear fluid (dielectric constant: 78.4, screening length: 8.12261 Bohr) occupying 0.727439 of unit cell:	Completed after 0 iterations at t[s]:   9792.01
	FillingsUpdate:  mu: -0.127200000  nElectrons: 218.453642  magneticMoment: [ Abs: 2.09426  Tot: -1.97152 ]
	SubspaceRotationAdjust: set factor to 0.625
ElecMinimize: Iter:   6  G: -343.654421690563254  |grad|_K:  1.274e-08  alpha:  5.283e-01  linmin: -2.505e-03  t[s]:   9841.76
	Linear fluid (dielectric constant: 78.4, screening length: 8.12261 Bohr) occupying 0.727439 of unit cell:	Completed after 0 iterations at t[s]:   9881.50
	Linear fluid (dielectric constant: 78.4, screening length: 8.12261 Bohr) occupying 0.727439 of unit cell:	Completed after 0 iterations at t[s]:   9916.01
	FillingsUpdate:  mu: -0.127200000  nElectrons: 218.453645  magneticMoment: [ Abs: 2.09420  Tot: -1.97151 ]
	SubspaceRotationAdjust: set factor to 0.71
ElecMinimize: Iter:   7  G: -343.654421728105831  |grad|_K:  1.173e-08  alpha:  9.013e-01  linmin:  2.815e-05  t[s]:   9965.93
ElecMinimize: Converged (|Delta G|<1.000000e-07 for 2 iters).
Setting wave functions to eigenvectors of Hamiltonian
Converging empty states (this may take a while): |deigs|: 8.914e-08

Computing DFT-D3 correction:
# coordination-number C 3.302 3.323 3.334 3.331 3.313 3.290 3.330 3.586 3.328 3.313 3.302 3.329 3.302 3.300 3.322 3.593 3.260 3.300 3.319 3.334 3.328 3.303 3.305 3.328 3.334 3.320 3.301 3.269 3.575 3.323 3.302 3.305 3.316 3.300 3.312 3.327 3.579 3.315 3.287 3.312 3.331 3.334 3.323 3.301 2.007
# coordination-number N 3.173 3.172 3.182 3.179
# coordination-number Ti 6.477
# coordination-number O 1.028
# diagonal-C6 C 24.26 24.05 23.93 23.96 24.16 24.38 23.97 20.45 24.00 24.16 24.26 23.98 24.26 24.29 24.06 20.37 24.63 24.28 24.10 23.93 24.00 24.25 24.24 23.99 23.93 24.08 24.27 24.56 20.59 24.05 24.27 24.23 24.12 24.28 24.17 24.01 20.53 24.13 24.41 24.17 23.96 23.93 24.05 24.27 29.47
# diagonal-C6 N 15.60 15.60 15.60 15.60
# diagonal-C6 Ti 321.59
# diagonal-C6 O 12.79
EvdW_6 =   -0.038395
EvdW_8 =   -0.031218
Completed 2 of 7 configurations.

Computing DFT-D3 correction:
# coordination-number C 3.302 3.323 3.334 3.331 3.313 3.290 3.330 3.586 3.328 3.313 3.302 3.329 3.302 3.300 3.322 3.593 3.260 3.300 3.319 3.334 3.328 3.303 3.305 3.328 3.334 3.320 3.301 3.269 3.575 3.323 3.302 3.305 3.316 3.300 3.312 3.327 3.579 3.315 3.287 3.312 3.331 3.334 3.323 3.301 2.007
# coordination-number N 3.173 3.172 3.182 3.179
# coordination-number Ti 6.477
# coordination-number O 1.028
# diagonal-C6 C 24.26 24.05 23.93 23.96 24.16 24.38 23.97 20.45 24.00 24.16 24.26 23.98 24.26 24.29 24.06 20.37 24.63 24.28 24.10 23.93 24.00 24.25 24.24 23.99 23.93 24.08 24.27 24.56 20.59 24.05 24.27 24.23 24.12 24.28 24.17 24.01 20.53 24.13 24.41 24.17 23.96 23.93 24.05 24.27 29.47
# diagonal-C6 N 15.60 15.60 15.60 15.60
# diagonal-C6 Ti 321.59
# diagonal-C6 O 12.79
EvdW_6 =   -0.038395
EvdW_8 =   -0.031217
Shifting auxilliary hamiltonian by -0.000002 to set nElectrons=218.453645

-------- Electronic minimization -----------
	Linear fluid (dielectric constant: 78.4, screening length: 8.12261 Bohr) occupying 0.727437 of unit cell:	Completed after 6 iterations at t[s]:  10174.11
	FillingsUpdate:  mu: -0.127200000  nElectrons: 218.453645  magneticMoment: [ Abs: 2.09416  Tot: -1.97149 ]
ElecMinimize: Iter:   0  G: -343.654386136451649  |grad|_K:  4.409e-07  alpha:  1.000e+00
	Linear fluid (dielectric constant: 78.4, screening length: 8.12261 Bohr) occupying 0.727449 of unit cell:	Completed after 4 iterations at t[s]:  10272.40
	Linear fluid (dielectric constant: 78.4, screening length: 8.12261 Bohr) occupying 0.727446 of unit cell:	Completed after 2 iterations at t[s]:  10309.30
	FillingsUpdate:  mu: -0.127200000  nElectrons: 218.455081  magneticMoment: [ Abs: 2.09480  Tot: -1.97196 ]
	SubspaceRotationAdjust: set factor to 0.842
ElecMinimize: Iter:   1  G: -343.654416684592888  |grad|_K:  2.066e-07  alpha:  7.707e-01  linmin:  7.519e-05  t[s]:  10358.18
	Linear fluid (dielectric constant: 78.4, screening length: 8.12261 Bohr) occupying 0.727446 of unit cell:	Completed after 4 iterations at t[s]:  10401.58
	Linear fluid (dielectric constant: 78.4, screening length: 8.12261 Bohr) occupying 0.727446 of unit cell:	Completed after 3 iterations at t[s]:  10438.82
	FillingsUpdate:  mu: -0.127200000  nElectrons: 218.454648  magneticMoment: [ Abs: 2.09482  Tot: -1.97214 ]
	SubspaceRotationAdjust: set factor to 0.664
ElecMinimize: Iter:   2  G: -343.654420107504961  |grad|_K:  1.817e-07  alpha:  3.966e-01  linmin:  9.978e-05  t[s]:  10487.84
	Linear fluid (dielectric constant: 78.4, screening length: 8.12261 Bohr) occupying 0.727449 of unit cell:	Completed after 3 iterations at t[s]:  10530.33
	Linear fluid (dielectric constant: 78.4, screening length: 8.12261 Bohr) occupying 0.727449 of unit cell:	Completed after 0 iterations at t[s]:  10564.73
	FillingsUpdate:  mu: -0.127200000  nElectrons: 218.455502  magneticMoment: [ Abs: 2.09496  Tot: -1.97222 ]
	SubspaceRotationAdjust: set factor to 0.42
ElecMinimize: Iter:   3  G: -343.654422633459205  |grad|_K:  7.810e-08  alpha:  3.780e-01  linmin:  2.319e-04  t[s]:  10613.75
	Linear fluid (dielectric constant: 78.4, screening length: 8.12261 Bohr) occupying 0.727448 of unit cell:	Completed after 1 iterations at t[s]:  10655.08
	Linear fluid (dielectric constant: 78.4, screening length: 8.12261 Bohr) occupying 0.727448 of unit cell:	Completed after 0 iterations at t[s]:  10689.80
	FillingsUpdate:  mu: -0.127200000  nElectrons: 218.455570  magneticMoment: [ Abs: 2.09496  Tot: -1.97230 ]
	SubspaceRotationAdjust: set factor to 0.403
ElecMinimize: Iter:   4  G: -343.654423269745507  |grad|_K:  3.523e-08  alpha:  4.941e-01  linmin: -3.806e-03  t[s]:  10739.81
	Linear fluid (dielectric constant: 78.4, screening length: 8.12261 Bohr) occupying 0.727448 of unit cell:	Completed after 0 iterations at t[s]:  10779.96
	Linear fluid (dielectric constant: 78.4, screening length: 8.12261 Bohr) occupying 0.727448 of unit cell:	Completed after 1 iterations at t[s]:  10815.72
	FillingsUpdate:  mu: -0.127200000  nElectrons: 218.455650  magneticMoment: [ Abs: 2.09493  Tot: -1.97233 ]
	SubspaceRotationAdjust: set factor to 0.421
ElecMinimize: Iter:   5  G: -343.654423471042207  |grad|_K:  3.138e-08  alpha:  8.420e-01  linmin:  2.225e-03  t[s]:  10865.47
	Linear fluid (dielectric constant: 78.4, screening length: 8.12261 Bohr) occupying 0.727448 of unit cell:	Completed after 0 iterations at t[s]:  10905.52
	Linear fluid (dielectric constant: 78.4, screening length: 8.12261 Bohr) occupying 0.727448 of unit cell:	Completed after 1 iterations at t[s]:  10941.26
	FillingsUpdate:  mu: -0.127200000  nElectrons: 218.455708  magneticMoment: [ Abs: 2.09487  Tot: -1.97237 ]
	SubspaceRotationAdjust: set factor to 0.445
ElecMinimize: Iter:   6  G: -343.654423597748178  |grad|_K:  2.701e-08  alpha:  9.196e-01  linmin:  2.436e-03  t[s]:  10989.94
	Linear fluid (dielectric constant: 78.4, screening length: 8.12261 Bohr) occupying 0.727448 of unit cell:	Completed after 1 iterations at t[s]:  11031.05
	Linear fluid (dielectric constant: 78.4, screening length: 8.12261 Bohr) occupying 0.727448 of unit cell:	Completed after 0 iterations at t[s]:  11066.65
	FillingsUpdate:  mu: -0.127200000  nElectrons: 218.455699  magneticMoment: [ Abs: 2.09481  Tot: -1.97237 ]
	SubspaceRotationAdjust: set factor to 0.441
ElecMinimize: Iter:   7  G: -343.654423652713547  |grad|_K:  2.301e-08  alpha:  4.923e-01  linmin:  4.804e-04  t[s]:  11115.76
	Linear fluid (dielectric constant: 78.4, screening length: 8.12261 Bohr) occupying 0.727448 of unit cell:	Completed after 0 iterations at t[s]:  11157.45
	Linear fluid (dielectric constant: 78.4, screening length: 8.12261 Bohr) occupying 0.727448 of unit cell:	Completed after 0 iterations at t[s]:  11192.10
	FillingsUpdate:  mu: -0.127200000  nElectrons: 218.455704  magneticMoment: [ Abs: 2.09476  Tot: -1.97237 ]
	SubspaceRotationAdjust: set factor to 0.512
ElecMinimize: Iter:   8  G: -343.654423705166209  |grad|_K:  1.808e-08  alpha:  5.002e-01  linmin: -2.130e-05  t[s]:  11240.63
ElecMinimize: Converged (|Delta G|<1.000000e-07 for 2 iters).
Setting wave functions to eigenvectors of Hamiltonian
Converging empty states (this may take a while): |deigs|: 1.119e-07

Computing DFT-D3 correction:
# coordination-number C 3.302 3.323 3.334 3.331 3.313 3.290 3.330 3.586 3.328 3.313 3.302 3.329 3.302 3.300 3.322 3.593 3.260 3.300 3.319 3.334 3.328 3.303 3.305 3.328 3.334 3.320 3.301 3.269 3.575 3.323 3.302 3.305 3.316 3.300 3.312 3.327 3.579 3.315 3.287 3.312 3.331 3.334 3.323 3.301 2.007
# coordination-number N 3.173 3.172 3.182 3.179
# coordination-number Ti 6.477
# coordination-number O 1.028
# diagonal-C6 C 24.26 24.05 23.93 23.96 24.16 24.38 23.97 20.45 24.00 24.16 24.26 23.98 24.26 24.29 24.06 20.37 24.63 24.28 24.10 23.93 24.00 24.25 24.24 23.99 23.93 24.08 24.27 24.56 20.59 24.05 24.27 24.23 24.12 24.28 24.17 24.01 20.53 24.13 24.41 24.17 23.96 23.93 24.05 24.27 29.47
# diagonal-C6 N 15.60 15.60 15.60 15.60
# diagonal-C6 Ti 321.59
# diagonal-C6 O 12.79
EvdW_6 =   -0.038395
EvdW_8 =   -0.031217
Completed 3 of 7 configurations.

Computing DFT-D3 correction:
# coordination-number C 3.302 3.323 3.334 3.331 3.313 3.290 3.330 3.586 3.328 3.313 3.302 3.329 3.302 3.300 3.322 3.593 3.260 3.300 3.319 3.334 3.328 3.303 3.305 3.328 3.334 3.320 3.301 3.269 3.575 3.323 3.302 3.305 3.316 3.300 3.312 3.327 3.579 3.315 3.287 3.312 3.331 3.334 3.323 3.301 2.007
# coordination-number N 3.173 3.172 3.182 3.179
# coordination-number Ti 6.477
# coordination-number O 1.028
# diagonal-C6 C 24.26 24.05 23.93 23.96 24.16 24.38 23.97 20.45 24.00 24.16 24.26 23.98 24.26 24.29 24.06 20.37 24.63 24.28 24.10 23.93 24.00 24.25 24.24 23.99 23.93 24.08 24.27 24.56 20.59 24.05 24.27 24.23 24.12 24.28 24.17 24.01 20.53 24.13 24.41 24.17 23.96 23.93 24.05 24.27 29.48
# diagonal-C6 N 15.60 15.60 15.60 15.60
# diagonal-C6 Ti 321.59
# diagonal-C6 O 12.79
EvdW_6 =   -0.038396
EvdW_8 =   -0.031212
Shifting auxilliary hamiltonian by 0.000002 to set nElectrons=218.455704

-------- Electronic minimization -----------
	Linear fluid (dielectric constant: 78.4, screening length: 8.12261 Bohr) occupying 0.727418 of unit cell:	Completed after 7 iterations at t[s]:  11450.60
	FillingsUpdate:  mu: -0.127200000  nElectrons: 218.455704  magneticMoment: [ Abs: 2.09456  Tot: -1.97235 ]
ElecMinimize: Iter:   0  G: -343.654297223616652  |grad|_K:  6.915e-07  alpha:  1.000e+00
	Linear fluid (dielectric constant: 78.4, screening length: 8.12261 Bohr) occupying 0.727384 of unit cell:	Completed after 9 iterations at t[s]:  11552.10
	Linear fluid (dielectric constant: 78.4, screening length: 8.12261 Bohr) occupying 0.727399 of unit cell:	Completed after 6 iterations at t[s]:  11591.30
	FillingsUpdate:  mu: -0.127200000  nElectrons: 218.451428  magneticMoment: [ Abs: 2.09376  Tot: -1.97203 ]
	SubspaceRotationAdjust: set factor to 0.478
ElecMinimize: Iter:   1  G: -343.654353892727158  |grad|_K:  4.189e-07  alpha:  5.800e-01  linmin:  8.498e-07  t[s]:  11640.26
	Linear fluid (dielectric constant: 78.4, screening length: 8.12261 Bohr) occupying 0.727378 of unit cell:	Completed after 7 iterations at t[s]:  11685.20
	Linear fluid (dielectric constant: 78.4, screening length: 8.12261 Bohr) occupying 0.727383 of unit cell:	Completed after 3 iterations at t[s]:  11722.51
	FillingsUpdate:  mu: -0.127200000  nElectrons: 218.450498  magneticMoment: [ Abs: 2.09344  Tot: -1.97162 ]
	SubspaceRotationAdjust: set factor to 0.417
ElecMinimize: Iter:   2  G: -343.654369190394164  |grad|_K:  2.614e-07  alpha:  4.279e-01  linmin:  3.310e-06  t[s]:  11771.20
	Linear fluid (dielectric constant: 78.4, screening length: 8.12261 Bohr) occupying 0.727369 of unit cell:	Completed after 3 iterations at t[s]:  11813.53
	Linear fluid (dielectric constant: 78.4, screening length: 8.12261 Bohr) occupying 0.727366 of unit cell:	Completed after 2 iterations at t[s]:  11850.09
	FillingsUpdate:  mu: -0.127200000  nElectrons: 218.447983  magneticMoment: [ Abs: 2.09293  Tot: -1.97106 ]
	SubspaceRotationAdjust: set factor to 0.405
ElecMinimize: Iter:   3  G: -343.654376392405254  |grad|_K:  1.576e-07  alpha:  5.194e-01  linmin:  6.917e-05  t[s]:  11898.84
	Linear fluid (dielectric constant: 78.4, screening length: 8.12261 Bohr) occupying 0.727364 of unit cell:	Completed after 2 iterations at t[s]:  11940.61
	Linear fluid (dielectric constant: 78.4, screening length: 8.12261 Bohr) occupying 0.727363 of unit cell:	Completed after 1 iterations at t[s]:  11976.01
	FillingsUpdate:  mu: -0.127200000  nElectrons: 218.446401  magneticMoment: [ Abs: 2.09285  Tot: -1.97069 ]
	SubspaceRotationAdjust: set factor to 0.485
ElecMinimize: Iter:   4  G: -343.654379754943875  |grad|_K:  6.827e-08  alpha:  6.668e-01  linmin: -2.914e-04  t[s]:  12024.63
	Linear fluid (dielectric constant: 78.4, screening length: 8.12261 Bohr) occupying 0.727364 of unit cell:	Completed after 2 iterations at t[s]:  12066.74
	Linear fluid (dielectric constant: 78.4, screening length: 8.12261 Bohr) occupying 0.727364 of unit cell:	Completed after 0 iterations at t[s]:  12101.08
	FillingsUpdate:  mu: -0.127200000  nElectrons: 218.446007  magneticMoment: [ Abs: 2.09306  Tot: -1.97058 ]
	SubspaceRotationAdjust: set factor to 0.506
ElecMinimize: Iter:   5  G: -343.654380542954982  |grad|_K:  4.308e-08  alpha:  7.956e-01  linmin: -4.225e-04  t[s]:  12149.49
	Linear fluid (dielectric constant: 78.4, screening length: 8.12261 Bohr) occupying 0.727364 of unit cell:	Completed after 1 iterations at t[s]:  12190.69
	Linear fluid (dielectric constant: 78.4, screening length: 8.12261 Bohr) occupying 0.727364 of unit cell:	Completed after 0 iterations at t[s]:  12224.72
	FillingsUpdate:  mu: -0.127200000  nElectrons: 218.445792  magneticMoment: [ Abs: 2.09326  Tot: -1.97050 ]
	SubspaceRotationAdjust: set factor to 0.502
ElecMinimize: Iter:   6  G: -343.654380797085025  |grad|_K:  3.585e-08  alpha:  6.359e-01  linmin:  2.785e-04  t[s]:  12273.55
	Linear fluid (dielectric constant: 78.4, screening length: 8.12261 Bohr) occupying 0.727366 of unit cell:	Completed after 1 iterations at t[s]:  12314.75
	Linear fluid (dielectric constant: 78.4, screening length: 8.12261 Bohr) occupying 0.727365 of unit cell:	Completed after 0 iterations at t[s]:  12349.32
	FillingsUpdate:  mu: -0.127200000  nElectrons: 218.445722  magneticMoment: [ Abs: 2.09351  Tot: -1.97048 ]
	SubspaceRotationAdjust: set factor to 0.564
ElecMinimize: Iter:   7  G: -343.654380924892166  |grad|_K:  1.911e-08  alpha:  5.291e-01  linmin: -5.478e-04  t[s]:  12397.61
	Linear fluid (dielectric constant: 78.4, screening length: 8.12261 Bohr) occupying 0.727366 of unit cell:	Completed after 0 iterations at t[s]:  12437.80
	Linear fluid (dielectric constant: 78.4, screening length: 8.12261 Bohr) occupying 0.727366 of unit cell:	Completed after 0 iterations at t[s]:  12472.29
	FillingsUpdate:  mu: -0.127200000  nElectrons: 218.445745  magneticMoment: [ Abs: 2.09375  Tot: -1.97049 ]
	SubspaceRotationAdjust: set factor to 0.625
ElecMinimize: Iter:   8  G: -343.654380988948390  |grad|_K:  1.435e-08  alpha:  8.135e-01  linmin:  2.820e-05  t[s]:  12520.32
	Linear fluid (dielectric constant: 78.4, screening length: 8.12261 Bohr) occupying 0.727366 of unit cell:	Completed after 2 iterations at t[s]:  12562.67
	Linear fluid (dielectric constant: 78.4, screening length: 8.12261 Bohr) occupying 0.727366 of unit cell:	Completed after 0 iterations at t[s]:  12596.88
ElecMinimize: 	Step increased G by 1.830222e-08, reducing alpha to 2.817930e-02.
	Linear fluid (dielectric constant: 78.4, screening length: 8.12261 Bohr) occupying 0.727366 of unit cell:	Completed after 0 iterations at t[s]:  12676.28
ElecMinimize: 	Step increased G by 2.259577e-08, reducing alpha to 2.817930e-03.
	Linear fluid (dielectric constant: 78.4, screening length: 8.12261 Bohr) occupying 0.727366 of unit cell:	Completed after 0 iterations at t[s]:  12755.91
ElecMinimize: 	Step increased G by 2.334809e-08, reducing alpha to 2.817930e-04.
ElecMinimize: 	Step failed to reduce G after 3 attempts. Quitting step.
ElecMinimize: 	Undoing step.
	Linear fluid (dielectric constant: 78.4, screening length: 8.12261 Bohr) occupying 0.727366 of unit cell:	Completed after 0 iterations at t[s]:  12836.01
ElecMinimize: 	Step failed: resetting search direction.
	FillingsUpdate:  mu: -0.127200000  nElectrons: 218.445746  magneticMoment: [ Abs: 2.09375  Tot: -1.97049 ]
	SubspaceRotationAdjust: set factor to 0.609
ElecMinimize: Iter:   9  G: -343.654380965603082  |grad|_K:  2.589e-08  alpha:  2.818e-04
	Linear fluid (dielectric constant: 78.4, screening length: 8.12261 Bohr) occupying 0.727364 of unit cell:	Completed after 2 iterations at t[s]:  12926.14
	Linear fluid (dielectric constant: 78.4, screening length: 8.12261 Bohr) occupying 0.727365 of unit cell:	Completed after 2 iterations at t[s]:  12962.68
	FillingsUpdate:  mu: -0.127200000  nElectrons: 218.445760  magneticMoment: [ Abs: 2.09377  Tot: -1.97048 ]
	SubspaceRotationAdjust: set factor to 0.422
ElecMinimize: Iter:  10  G: -343.654380993018151  |grad|_K:  1.279e-08  alpha:  3.034e-01  linmin:  3.135e-03  t[s]:  13010.92
	Linear fluid (dielectric constant: 78.4, screening length: 8.12261 Bohr) occupying 0.727365 of unit cell:	Completed after 0 iterations at t[s]:  13050.85
ElecMinimize: 	Predicted alpha/alphaT>3.000000, increasing alphaT to 9.102212e-01.
	Linear fluid (dielectric constant: 78.4, screening length: 8.12261 Bohr) occupying 0.727366 of unit cell:	Completed after 0 iterations at t[s]:  13085.47
	Linear fluid (dielectric constant: 78.4, screening length: 8.12261 Bohr) occupying 0.727366 of unit cell:	Completed after 1 iterations at t[s]:  13121.02
	FillingsUpdate:  mu: -0.127200000  nElectrons: 218.445889  magneticMoment: [ Abs: 2.09392  Tot: -1.97051 ]
	SubspaceRotationAdjust: set factor to 0.394
ElecMinimize: Iter:  11  G: -343.654380997106728  |grad|_K:  1.482e-08  alpha:  1.269e+00  linmin:  3.156e-03  t[s]:  13169.25
ElecMinimize: Converged (|Delta G|<1.000000e-07 for 2 iters).
Setting wave functions to eigenvectors of Hamiltonian
Converging empty states (this may take a while): |deigs|: 5.334e-08

Computing DFT-D3 correction:
# coordination-number C 3.302 3.323 3.334 3.331 3.313 3.290 3.330 3.586 3.328 3.313 3.302 3.329 3.302 3.300 3.322 3.593 3.260 3.300 3.319 3.334 3.328 3.303 3.305 3.328 3.334 3.320 3.301 3.269 3.575 3.323 3.302 3.305 3.316 3.300 3.312 3.327 3.579 3.315 3.287 3.312 3.331 3.334 3.323 3.301 2.007
# coordination-number N 3.173 3.172 3.182 3.179
# coordination-number Ti 6.477
# coordination-number O 1.028
# diagonal-C6 C 24.26 24.05 23.93 23.96 24.16 24.38 23.97 20.45 24.00 24.16 24.26 23.98 24.26 24.29 24.06 20.37 24.63 24.28 24.10 23.93 24.00 24.25 24.24 23.99 23.93 24.08 24.27 24.56 20.59 24.05 24.27 24.23 24.12 24.28 24.17 24.01 20.53 24.13 24.41 24.17 23.96 23.93 24.05 24.27 29.48
# diagonal-C6 N 15.60 15.60 15.60 15.60
# diagonal-C6 Ti 321.59
# diagonal-C6 O 12.79
EvdW_6 =   -0.038396
EvdW_8 =   -0.031212
Completed 4 of 7 configurations.

Computing DFT-D3 correction:
# coordination-number C 3.302 3.323 3.334 3.331 3.313 3.290 3.330 3.586 3.328 3.313 3.302 3.329 3.302 3.300 3.322 3.593 3.260 3.300 3.319 3.334 3.328 3.303 3.305 3.328 3.334 3.320 3.301 3.269 3.575 3.323 3.302 3.305 3.316 3.300 3.312 3.327 3.579 3.315 3.287 3.312 3.331 3.334 3.323 3.301 2.007
# coordination-number N 3.173 3.172 3.182 3.179
# coordination-number Ti 6.477
# coordination-number O 1.028
# diagonal-C6 C 24.26 24.05 23.93 23.96 24.16 24.38 23.97 20.45 24.00 24.16 24.26 23.98 24.26 24.29 24.06 20.37 24.63 24.28 24.10 23.93 24.00 24.25 24.24 23.99 23.93 24.08 24.27 24.56 20.59 24.05 24.27 24.23 24.12 24.28 24.17 24.01 20.53 24.13 24.41 24.17 23.96 23.93 24.05 24.27 29.47
# diagonal-C6 N 15.60 15.60 15.60 15.60
# diagonal-C6 Ti 321.59
# diagonal-C6 O 12.79
EvdW_6 =   -0.038395
EvdW_8 =   -0.031217
Shifting auxilliary hamiltonian by 0.000003 to set nElectrons=218.445889

-------- Electronic minimization -----------
	Linear fluid (dielectric constant: 78.4, screening length: 8.12261 Bohr) occupying 0.727397 of unit cell:	Completed after 6 iterations at t[s]:  13375.23
	FillingsUpdate:  mu: -0.127200000  nElectrons: 218.445889  magneticMoment: [ Abs: 2.09412  Tot: -1.97054 ]
ElecMinimize: Iter:   0  G: -343.654382917494274  |grad|_K:  4.955e-07  alpha:  1.000e+00
	Linear fluid (dielectric constant: 78.4, screening length: 8.12261 Bohr) occupying 0.727409 of unit cell:	Completed after 6 iterations at t[s]:  13474.53
	Linear fluid (dielectric constant: 78.4, screening length: 8.12261 Bohr) occupying 0.727405 of unit cell:	Completed after 3 iterations at t[s]:  13511.92
	FillingsUpdate:  mu: -0.127200000  nElectrons: 218.448087  magneticMoment: [ Abs: 2.09476  Tot: -1.97109 ]
	SubspaceRotationAdjust: set factor to 0.418
ElecMinimize: Iter:   1  G: -343.654416573448259  |grad|_K:  2.580e-07  alpha:  6.723e-01  linmin:  2.268e-05  t[s]:  13560.36
	Linear fluid (dielectric constant: 78.4, screening length: 8.12261 Bohr) occupying 0.727418 of unit cell:	Completed after 3 iterations at t[s]:  13603.03
	Linear fluid (dielectric constant: 78.4, screening length: 8.12261 Bohr) occupying 0.727416 of unit cell:	Completed after 2 iterations at t[s]:  13639.08
	FillingsUpdate:  mu: -0.127200000  nElectrons: 218.448702  magneticMoment: [ Abs: 2.09494  Tot: -1.97128 ]
	SubspaceRotationAdjust: set factor to 0.408
ElecMinimize: Iter:   2  G: -343.654424328397056  |grad|_K:  1.688e-07  alpha:  5.737e-01  linmin:  5.858e-05  t[s]:  13688.24
	Linear fluid (dielectric constant: 78.4, screening length: 8.12261 Bohr) occupying 0.727425 of unit cell:	Completed after 3 iterations at t[s]:  13730.83
	Linear fluid (dielectric constant: 78.4, screening length: 8.12261 Bohr) occupying 0.727424 of unit cell:	Completed after 0 iterations at t[s]:  13765.29
[...]
disp C   0.000000000000000   0.000000000000000   0.000000000000000
disp C   0.000000000000000   0.000000000000000   0.000000000000000
disp C   0.000000000000000   0.000000000000000   0.000000000000000
disp C   0.000000000000000   0.000000000000000   0.000000000000000
disp C   0.000000000000000   0.000000000000000   0.000000000000000
disp C   0.000000000000000   0.000000000000000   0.000000000000000
disp C   0.000000000000000   0.000000000000000   0.000000000000000
disp C   0.000000000000000   0.000000000000000   0.000000000000000
disp C   0.000000000000000   0.000000000000000   0.000000000000000
disp C   0.000000000000000   0.000000000000000   0.000000000000000
disp C   0.000000000000000   0.000000000000000   0.000000000000000
disp C   0.000000000000000   0.000000000000000   0.000000000000000
disp C   0.000000000000000   0.000000000000000   0.000000000000000
disp C   0.000000000000000   0.000000000000000   0.000000000000000
disp C   0.000000000000000   0.000000000000000   0.000000000000000
disp C   0.000000000000000   0.000000000000000   0.000000000000000
disp C   0.000000000000000   0.000000000000000   0.000000000000000
disp C   0.000000000000000   0.000000000000000   0.000000000000000
disp C   0.000000000000000   0.000000000000000   0.000000000000000
disp C   0.000000000000000   0.000000000000000   0.000000000000000
disp C  -0.000151529762130  -0.001469971958333  -0.000328304204140
disp N   0.000000000000000   0.000000000000000   0.000000000000000
disp N   0.000000000000000   0.000000000000000   0.000000000000000
disp N   0.000000000000000   0.000000000000000   0.000000000000000
disp N   0.000000000000000   0.000000000000000   0.000000000000000
disp Ti   0.000000000000000   0.000000000000000   0.000000000000000
disp O  -0.002219044201549  -0.004728239168662  -0.002299308001337

Real mode 2:
Frequency: 0.001464 Eh [ 321 cm^-1 ]
Degeneracy: 1 of 1
IR intensity: 0.1623 e^2/amu [ 158.2 km/mol ]
Displacements:
disp C   0.000000000000000   0.000000000000000   0.000000000000000
disp C   0.000000000000000   0.000000000000000   0.000000000000000
disp C   0.000000000000000   0.000000000000000   0.000000000000000
disp C   0.000000000000000   0.000000000000000   0.000000000000000
disp C   0.000000000000000   0.000000000000000   0.000000000000000
disp C   0.000000000000000   0.000000000000000   0.000000000000000
disp C   0.000000000000000   0.000000000000000   0.000000000000000
disp C   0.000000000000000   0.000000000000000   0.000000000000000
disp C   0.000000000000000   0.000000000000000   0.000000000000000
disp C   0.000000000000000   0.000000000000000   0.000000000000000
disp C   0.000000000000000   0.000000000000000   0.000000000000000
disp C   0.000000000000000   0.000000000000000   0.000000000000000
disp C   0.000000000000000   0.000000000000000   0.000000000000000
disp C   0.000000000000000   0.000000000000000   0.000000000000000
disp C   0.000000000000000   0.000000000000000   0.000000000000000
disp C   0.000000000000000   0.000000000000000   0.000000000000000
disp C   0.000000000000000   0.000000000000000   0.000000000000000
disp C   0.000000000000000   0.000000000000000   0.000000000000000
disp C   0.000000000000000   0.000000000000000   0.000000000000000
disp C   0.000000000000000   0.000000000000000   0.000000000000000
disp C   0.000000000000000   0.000000000000000   0.000000000000000
disp C   0.000000000000000   0.000000000000000   0.000000000000000
disp C   0.000000000000000   0.000000000000000   0.000000000000000
disp C   0.000000000000000   0.000000000000000   0.000000000000000
disp C   0.000000000000000   0.000000000000000   0.000000000000000
disp C   0.000000000000000   0.000000000000000   0.000000000000000
disp C   0.000000000000000   0.000000000000000   0.000000000000000
disp C   0.000000000000000   0.000000000000000   0.000000000000000
disp C   0.000000000000000   0.000000000000000   0.000000000000000
disp C   0.000000000000000   0.000000000000000   0.000000000000000
disp C   0.000000000000000   0.000000000000000   0.000000000000000
disp C   0.000000000000000   0.000000000000000   0.000000000000000
disp C   0.000000000000000   0.000000000000000   0.000000000000000
disp C   0.000000000000000   0.000000000000000   0.000000000000000
disp C   0.000000000000000   0.000000000000000   0.000000000000000
disp C   0.000000000000000   0.000000000000000   0.000000000000000
disp C   0.000000000000000   0.000000000000000   0.000000000000000
disp C   0.000000000000000   0.000000000000000   0.000000000000000
disp C   0.000000000000000   0.000000000000000   0.000000000000000
disp C   0.000000000000000   0.000000000000000   0.000000000000000
disp C   0.000000000000000   0.000000000000000   0.000000000000000
disp C   0.000000000000000   0.000000000000000   0.000000000000000
disp C   0.000000000000000   0.000000000000000   0.000000000000000
disp C   0.000000000000000   0.000000000000000   0.000000000000000
disp C   0.002255899134471  -0.005715608201175  -0.002379315274982
disp N   0.000000000000000   0.000000000000000   0.000000000000000
disp N   0.000000000000000   0.000000000000000   0.000000000000000
disp N   0.000000000000000   0.000000000000000   0.000000000000000
disp N   0.000000000000000   0.000000000000000   0.000000000000000
disp Ti   0.000000000000000   0.000000000000000   0.000000000000000
disp O   0.000074631922936   0.001288321000631   0.000165285004871

Real mode 3:
Frequency: 0.001615 Eh [ 355 cm^-1 ]
Degeneracy: 1 of 2
IR intensity: 0.0480 e^2/amu [ 46.8 km/mol ]
Displacements:
disp C   0.000000000000000   0.000000000000000   0.000000000000000
disp C   0.000000000000000   0.000000000000000   0.000000000000000
disp C   0.000000000000000   0.000000000000000   0.000000000000000
disp C   0.000000000000000   0.000000000000000   0.000000000000000
disp C   0.000000000000000   0.000000000000000   0.000000000000000
disp C   0.000000000000000   0.000000000000000   0.000000000000000
disp C   0.000000000000000   0.000000000000000   0.000000000000000
disp C   0.000000000000000   0.000000000000000   0.000000000000000
disp C   0.000000000000000   0.000000000000000   0.000000000000000
disp C   0.000000000000000   0.000000000000000   0.000000000000000
disp C   0.000000000000000   0.000000000000000   0.000000000000000
disp C   0.000000000000000   0.000000000000000   0.000000000000000
disp C   0.000000000000000   0.000000000000000   0.000000000000000
disp C   0.000000000000000   0.000000000000000   0.000000000000000
disp C   0.000000000000000   0.000000000000000   0.000000000000000
disp C   0.000000000000000   0.000000000000000   0.000000000000000
disp C   0.000000000000000   0.000000000000000   0.000000000000000
disp C   0.000000000000000   0.000000000000000   0.000000000000000
disp C   0.000000000000000   0.000000000000000   0.000000000000000
disp C   0.000000000000000   0.000000000000000   0.000000000000000
disp C   0.000000000000000   0.000000000000000   0.000000000000000
disp C   0.000000000000000   0.000000000000000   0.000000000000000
disp C   0.000000000000000   0.000000000000000   0.000000000000000
disp C   0.000000000000000   0.000000000000000   0.000000000000000
disp C   0.000000000000000   0.000000000000000   0.000000000000000
disp C   0.000000000000000   0.000000000000000   0.000000000000000
disp C   0.000000000000000   0.000000000000000   0.000000000000000
disp C   0.000000000000000   0.000000000000000   0.000000000000000
disp C   0.000000000000000   0.000000000000000   0.000000000000000
disp C   0.000000000000000   0.000000000000000   0.000000000000000
disp C   0.000000000000000   0.000000000000000   0.000000000000000
disp C   0.000000000000000   0.000000000000000   0.000000000000000
disp C   0.000000000000000   0.000000000000000   0.000000000000000
disp C   0.000000000000000   0.000000000000000   0.000000000000000
disp C   0.000000000000000   0.000000000000000   0.000000000000000
disp C   0.000000000000000   0.000000000000000   0.000000000000000
disp C   0.000000000000000   0.000000000000000   0.000000000000000
disp C   0.000000000000000   0.000000000000000   0.000000000000000
disp C   0.000000000000000   0.000000000000000   0.000000000000000
disp C   0.000000000000000   0.000000000000000   0.000000000000000
disp C   0.000000000000000   0.000000000000000   0.000000000000000
disp C   0.000000000000000   0.000000000000000   0.000000000000000
disp C   0.000000000000000   0.000000000000000   0.000000000000000
disp C   0.000000000000000   0.000000000000000   0.000000000000000
disp C   0.006135406664582   0.001295766232844   0.002396058516749
disp N   0.000000000000000   0.000000000000000   0.000000000000000
disp N   0.000000000000000   0.000000000000000   0.000000000000000
disp N   0.000000000000000   0.000000000000000   0.000000000000000
disp N   0.000000000000000   0.000000000000000   0.000000000000000
disp Ti   0.000000000000000   0.000000000000000   0.000000000000000
disp O  -0.000503579558949  -0.000419850952066   0.000167104612102

Real mode 4:
Frequency: 0.001713 Eh [ 376 cm^-1 ]
Degeneracy: 2 of 2
IR intensity: 1.1644 e^2/amu [ 1135.2 km/mol ]
Displacements:
disp C   0.000000000000000   0.000000000000000   0.000000000000000
disp C   0.000000000000000   0.000000000000000   0.000000000000000
disp C   0.000000000000000   0.000000000000000   0.000000000000000
disp C   0.000000000000000   0.000000000000000   0.000000000000000
disp C   0.000000000000000   0.000000000000000   0.000000000000000
disp C   0.000000000000000   0.000000000000000   0.000000000000000
disp C   0.000000000000000   0.000000000000000   0.000000000000000
disp C   0.000000000000000   0.000000000000000   0.000000000000000
disp C   0.000000000000000   0.000000000000000   0.000000000000000
disp C   0.000000000000000   0.000000000000000   0.000000000000000
disp C   0.000000000000000   0.000000000000000   0.000000000000000
disp C   0.000000000000000   0.000000000000000   0.000000000000000
disp C   0.000000000000000   0.000000000000000   0.000000000000000
disp C   0.000000000000000   0.000000000000000   0.000000000000000
disp C   0.000000000000000   0.000000000000000   0.000000000000000
disp C   0.000000000000000   0.000000000000000   0.000000000000000
disp C   0.000000000000000   0.000000000000000   0.000000000000000
disp C   0.000000000000000   0.000000000000000   0.000000000000000
disp C   0.000000000000000   0.000000000000000   0.000000000000000
disp C   0.000000000000000   0.000000000000000   0.000000000000000
disp C   0.000000000000000   0.000000000000000   0.000000000000000
disp C   0.000000000000000   0.000000000000000   0.000000000000000
disp C   0.000000000000000   0.000000000000000   0.000000000000000
disp C   0.000000000000000   0.000000000000000   0.000000000000000
disp C   0.000000000000000   0.000000000000000   0.000000000000000
disp C   0.000000000000000   0.000000000000000   0.000000000000000
disp C   0.000000000000000   0.000000000000000   0.000000000000000
disp C   0.000000000000000   0.000000000000000   0.000000000000000
disp C   0.000000000000000   0.000000000000000   0.000000000000000
disp C   0.000000000000000   0.000000000000000   0.000000000000000
disp C   0.000000000000000   0.000000000000000   0.000000000000000
disp C   0.000000000000000   0.000000000000000   0.000000000000000
disp C   0.000000000000000   0.000000000000000   0.000000000000000
disp C   0.000000000000000   0.000000000000000   0.000000000000000
disp C   0.000000000000000   0.000000000000000   0.000000000000000
disp C   0.000000000000000   0.000000000000000   0.000000000000000
disp C   0.000000000000000   0.000000000000000   0.000000000000000
disp C   0.000000000000000   0.000000000000000   0.000000000000000
disp C   0.000000000000000   0.000000000000000   0.000000000000000
disp C   0.000000000000000   0.000000000000000   0.000000000000000
disp C   0.000000000000000   0.000000000000000   0.000000000000000
disp C   0.000000000000000   0.000000000000000   0.000000000000000
disp C   0.000000000000000   0.000000000000000   0.000000000000000
disp C   0.000000000000000   0.000000000000000   0.000000000000000
disp C  -0.001287225631045  -0.002184286681721   0.003513167311820
disp N   0.000000000000000   0.000000000000000   0.000000000000000
disp N   0.000000000000000   0.000000000000000   0.000000000000000
disp N   0.000000000000000   0.000000000000000   0.000000000000000
disp N   0.000000000000000   0.000000000000000   0.000000000000000
disp Ti   0.000000000000000   0.000000000000000   0.000000000000000
disp O  -0.001057379386420  -0.001189848711001   0.004202678395143

Real mode 5:
Frequency: 0.007897 Eh [ 1733 cm^-1 ]
Degeneracy: 1 of 1
IR intensity: 23.8405 e^2/amu [ 23241.6 km/mol ]
Displacements:
disp C   0.000000000000000   0.000000000000000   0.000000000000000
disp C   0.000000000000000   0.000000000000000   0.000000000000000
disp C   0.000000000000000   0.000000000000000   0.000000000000000
disp C   0.000000000000000   0.000000000000000   0.000000000000000
disp C   0.000000000000000   0.000000000000000   0.000000000000000
disp C   0.000000000000000   0.000000000000000   0.000000000000000
disp C   0.000000000000000   0.000000000000000   0.000000000000000
disp C   0.000000000000000   0.000000000000000   0.000000000000000
disp C   0.000000000000000   0.000000000000000   0.000000000000000
disp C   0.000000000000000   0.000000000000000   0.000000000000000
disp C   0.000000000000000   0.000000000000000   0.000000000000000
disp C   0.000000000000000   0.000000000000000   0.000000000000000
disp C   0.000000000000000   0.000000000000000   0.000000000000000
disp C   0.000000000000000   0.000000000000000   0.000000000000000
disp C   0.000000000000000   0.000000000000000   0.000000000000000
disp C   0.000000000000000   0.000000000000000   0.000000000000000
disp C   0.000000000000000   0.000000000000000   0.000000000000000
disp C   0.000000000000000   0.000000000000000   0.000000000000000
disp C   0.000000000000000   0.000000000000000   0.000000000000000
disp C   0.000000000000000   0.000000000000000   0.000000000000000
disp C   0.000000000000000   0.000000000000000   0.000000000000000
disp C   0.000000000000000   0.000000000000000   0.000000000000000
disp C   0.000000000000000   0.000000000000000   0.000000000000000
disp C   0.000000000000000   0.000000000000000   0.000000000000000
disp C   0.000000000000000   0.000000000000000   0.000000000000000
disp C   0.000000000000000   0.000000000000000   0.000000000000000
disp C   0.000000000000000   0.000000000000000   0.000000000000000
disp C   0.000000000000000   0.000000000000000   0.000000000000000
disp C   0.000000000000000   0.000000000000000   0.000000000000000
disp C   0.000000000000000   0.000000000000000   0.000000000000000
disp C   0.000000000000000   0.000000000000000   0.000000000000000
disp C   0.000000000000000   0.000000000000000   0.000000000000000
disp C   0.000000000000000   0.000000000000000   0.000000000000000
disp C   0.000000000000000   0.000000000000000   0.000000000000000
disp C   0.000000000000000   0.000000000000000   0.000000000000000
disp C   0.000000000000000   0.000000000000000   0.000000000000000
disp C   0.000000000000000   0.000000000000000   0.000000000000000
disp C   0.000000000000000   0.000000000000000   0.000000000000000
disp C   0.000000000000000   0.000000000000000   0.000000000000000
disp C   0.000000000000000   0.000000000000000   0.000000000000000
disp C   0.000000000000000   0.000000000000000   0.000000000000000
disp C   0.000000000000000   0.000000000000000   0.000000000000000
disp C   0.000000000000000   0.000000000000000   0.000000000000000
disp C   0.000000000000000   0.000000000000000   0.000000000000000
disp C   0.001054455334127   0.002018182858827  -0.004668514414967
disp N   0.000000000000000   0.000000000000000   0.000000000000000
disp N   0.000000000000000   0.000000000000000   0.000000000000000
disp N   0.000000000000000   0.000000000000000   0.000000000000000
disp N   0.000000000000000   0.000000000000000   0.000000000000000
disp Ti   0.000000000000000   0.000000000000000   0.000000000000000
disp O  -0.000756227988951  -0.001521649855549   0.003338555208975

Vibrational free energy components at T = 298 K:
	ZPE:          0.006552
	Evib:         0.008388
	TSvib:        0.003394
	Avib:         0.004994


Dumping 'jdft.n_up' ... done
Dumping 'jdft.n_dn' ... done
Dumping 'jdft.tau_up' ... done
Dumping 'jdft.tau_dn' ... done
Dumping 'jdft.eigenvals' ... done
Dumping 'jdft.eigStats' ... 
	eMin: -2.251185 at state 9 ( [ +0.000000 +0.000000 +0.000000 ] spin -1 )
	HOMO: -0.130304 at state 13 ( [ +0.333333 +0.333333 +0.000000 ] spin -1 )
	mu  : -0.127200
	LUMO: -0.124446 at state 0 ( [ +0.000000 +0.000000 +0.000000 ] spin 1 )
	eMax: +0.023321 at state 0 ( [ +0.000000 +0.000000 +0.000000 ] spin 1 )
	HOMO-LUMO gap: +0.005858
	Optical gap  : +0.013994 at state 11 ( [ +0.000000 -0.333333 +0.000000 ] spin -1 )
Dumping 'jdft.kPts' ... done
Dumping 'jdft.dosUp' ... done.
Dumping 'jdft.dosDn' ... done.
End date and time: Wed Nov  9 23:52:50 2022  (Duration: 0-4:54:12.19)
Done!

PROFILER:             augmentDensityGrid     0.799945 +/-     0.972895 s, 1004 calls,    803.144379 s total
PROFILER:         augmentDensityGridGrad     0.525765 +/-     0.614141 s,  564 calls,    296.531731 s total
PROFILER:        augmentDensitySpherical     0.000444 +/-     0.000562 s, 1004 calls,      0.445301 s total
PROFILER:    augmentDensitySphericalGrad     0.000430 +/-     0.000583 s,  812 calls,      0.349012 s total
PROFILER:                 augmentOverlap     1.586930 +/-     2.175442 s, 2140 calls,   3396.030236 s total
PROFILER:        ColumnBundle::randomize     0.005067 +/-     0.000000 s,    1 calls,      0.005067 s total
PROFILER:                     diagouterI    15.478560 +/-     3.167761 s,  254 calls,   3931.554319 s total
PROFILER:              EdensityAndVscloc     5.461886 +/-     4.463606 s,  252 calls,   1376.395202 s total
PROFILER:                     EnlAndGrad     0.001267 +/-     0.001909 s, 1104 calls,      1.398245 s total
PROFILER:            ExCorrCommunication     0.055882 +/-     0.055275 s, 1591 calls,     88.908456 s total
PROFILER:               ExCorrFunctional     0.022689 +/-     0.004101 s,  274 calls,      6.216788 s total
PROFILER:                    ExCorrTotal     0.581354 +/-     0.117494 s,  274 calls,    159.290877 s total
PROFILER:                   Idag_DiagV_I    24.924550 +/-    12.649390 s,  196 calls,   4885.211754 s total
PROFILER:                    initWeights     1.947524 +/-     0.000000 s,    1 calls,      1.947524 s total
PROFILER:                    inv(matrix)     0.001829 +/-     0.000873 s,  205 calls,      0.375021 s total
PROFILER:            matrix::diagonalize     0.007858 +/-     0.004963 s,  440 calls,      3.457357 s total
PROFILER:                    matrix::set     0.000002 +/-     0.000003 s, 24935 calls,      0.044131 s total
PROFILER:            orthoMatrix(matrix)     0.001291 +/-     0.000703 s,  261 calls,      0.336854 s total
PROFILER:     RadialFunctionR::transform     0.004606 +/-     0.024650 s,  141 calls,      0.649440 s total
PROFILER:                    reduceKmesh     0.000000 +/-     0.000000 s,    1 calls,      0.000000 s total
PROFILER:   VanDerWaalsD3::energyAndGrad     0.034930 +/-     0.013259 s,   15 calls,      0.523957 s total
PROFILER:               WavefunctionDrag    25.774533 +/-     0.350070 s,    7 calls,    180.421728 s total
PROFILER:                            Y*M     0.688217 +/-     0.840092 s, 4037 calls,   2778.332374 s total
PROFILER:                          Y1^Y2     0.685486 +/-     0.859394 s, 2913 calls,   1996.822027 s total

MEMUSAGE:                   ColumnBundle     1.307997 GB
MEMUSAGE:        complexScalarFieldTilde     0.049438 GB
MEMUSAGE:                    IndexArrays     0.023178 GB
MEMUSAGE:                         matrix     0.020559 GB
MEMUSAGE:                           misc     0.050872 GB
MEMUSAGE:                    ScalarField     0.395508 GB
MEMUSAGE:               ScalarFieldTilde     0.262436 GB
MEMUSAGE:                          Total     1.624364 GB
