
*************** JDFTx 1.7.0 (git hash 5f12716a) ***************

Start date and time: Wed Nov  9 18:58:39 2022
Executable /home/nisi6161/jdftx_alpine/build/jdftx with command-line: -i in
Running on hosts (process indices):  c3cpu-c11-u9-1.rc.int.colorado.edu (0-17)
Divided in process groups (process indices):  0 (0)  1 (1)  2 (2)  3 (3)  4 (4)  5 (5)  6 (6)  7 (7)  8 (8)  9 (9)  10 (10)  11 (11)  12 (12)  13 (13)  14 (14)  15 (15)  16 (16)  17 (17)
Resource initialization completed at t[s]:      0.00
Run totals: 18 processes, 48 threads, 0 GPUs


Input parsed successfully to the following command list (including defaults):

basis kpoint-dependent
converge-empty-states yes
coords-type Cartesian
core-overlap-check none
coulomb-interaction Periodic
davidson-band-ratio 1.1
density-of-states Etol 1.000000e-06 Esigma 1.000000e-03 \
		Complete \
	Total \
	OrthoOrbital C 1   s \
	OrthoOrbital C 1   p \
	OrthoOrbital C 1   px \
	OrthoOrbital C 1   py \
	OrthoOrbital C 1   pz \
	OrthoOrbital C 2   s \
	OrthoOrbital C 2   p \
	OrthoOrbital C 2   px \
	OrthoOrbital C 2   py \
	OrthoOrbital C 2   pz \
	OrthoOrbital C 3   s \
	OrthoOrbital C 3   p \
	OrthoOrbital C 3   px \
	OrthoOrbital C 3   py \
	OrthoOrbital C 3   pz \
	OrthoOrbital C 4   s \
	OrthoOrbital C 4   p \
	OrthoOrbital C 4   px \
	OrthoOrbital C 4   py \
	OrthoOrbital C 4   pz \
	OrthoOrbital C 5   s \
	OrthoOrbital C 5   p \
	OrthoOrbital C 5   px \
	OrthoOrbital C 5   py \
	OrthoOrbital C 5   pz \
	OrthoOrbital C 6   s \
	OrthoOrbital C 6   p \
	OrthoOrbital C 6   px \
	OrthoOrbital C 6   py \
	OrthoOrbital C 6   pz \
	OrthoOrbital C 7   s \
	OrthoOrbital C 7   p \
	OrthoOrbital C 7   px \
	OrthoOrbital C 7   py \
	OrthoOrbital C 7   pz \
	OrthoOrbital C 8   s \
	OrthoOrbital C 8   p \
	OrthoOrbital C 8   px \
	OrthoOrbital C 8   py \
	OrthoOrbital C 8   pz \
	OrthoOrbital C 9   s \
	OrthoOrbital C 9   p \
	OrthoOrbital C 9   px \
	OrthoOrbital C 9   py \
	OrthoOrbital C 9   pz \
	OrthoOrbital C 10   s \
	OrthoOrbital C 10   p \
	OrthoOrbital C 10   px \
	OrthoOrbital C 10   py \
	OrthoOrbital C 10   pz \
	OrthoOrbital C 11   s \
	OrthoOrbital C 11   p \
	OrthoOrbital C 11   px \
	OrthoOrbital C 11   py \
	OrthoOrbital C 11   pz \
	OrthoOrbital C 12   s \
	OrthoOrbital C 12   p \
	OrthoOrbital C 12   px \
	OrthoOrbital C 12   py \
	OrthoOrbital C 12   pz \
	OrthoOrbital C 13   s \
	OrthoOrbital C 13   p \
	OrthoOrbital C 13   px \
	OrthoOrbital C 13   py \
	OrthoOrbital C 13   pz \
	OrthoOrbital C 14   s \
	OrthoOrbital C 14   p \
	OrthoOrbital C 14   px \
	OrthoOrbital C 14   py \
	OrthoOrbital C 14   pz \
	OrthoOrbital C 15   s \
	OrthoOrbital C 15   p \
	OrthoOrbital C 15   px \
	OrthoOrbital C 15   py \
	OrthoOrbital C 15   pz \
	OrthoOrbital C 16   s \
	OrthoOrbital C 16   p \
	OrthoOrbital C 16   px \
	OrthoOrbital C 16   py \
	OrthoOrbital C 16   pz \
	OrthoOrbital C 17   s \
	OrthoOrbital C 17   p \
	OrthoOrbital C 17   px \
	OrthoOrbital C 17   py \
	OrthoOrbital C 17   pz \
	OrthoOrbital C 18   s \
	OrthoOrbital C 18   p \
	OrthoOrbital C 18   px \
	OrthoOrbital C 18   py \
	OrthoOrbital C 18   pz \
	OrthoOrbital C 19   s \
	OrthoOrbital C 19   p \
	OrthoOrbital C 19   px \
	OrthoOrbital C 19   py \
	OrthoOrbital C 19   pz \
	OrthoOrbital C 20   s \
	OrthoOrbital C 20   p \
	OrthoOrbital C 20   px \
	OrthoOrbital C 20   py \
	OrthoOrbital C 20   pz \
	OrthoOrbital C 21   s \
	OrthoOrbital C 21   p \
	OrthoOrbital C 21   px \
	OrthoOrbital C 21   py \
	OrthoOrbital C 21   pz \
	OrthoOrbital C 22   s \
	OrthoOrbital C 22   p \
	OrthoOrbital C 22   px \
	OrthoOrbital C 22   py \
	OrthoOrbital C 22   pz \
	OrthoOrbital C 23   s \
	OrthoOrbital C 23   p \
	OrthoOrbital C 23   px \
	OrthoOrbital C 23   py \
	OrthoOrbital C 23   pz \
	OrthoOrbital C 24   s \
	OrthoOrbital C 24   p \
	OrthoOrbital C 24   px \
	OrthoOrbital C 24   py \
	OrthoOrbital C 24   pz \
	OrthoOrbital C 25   s \
	OrthoOrbital C 25   p \
	OrthoOrbital C 25   px \
	OrthoOrbital C 25   py \
	OrthoOrbital C 25   pz \
	OrthoOrbital C 26   s \
	OrthoOrbital C 26   p \
	OrthoOrbital C 26   px \
	OrthoOrbital C 26   py \
	OrthoOrbital C 26   pz \
	OrthoOrbital C 27   s \
	OrthoOrbital C 27   p \
	OrthoOrbital C 27   px \
	OrthoOrbital C 27   py \
	OrthoOrbital C 27   pz \
	OrthoOrbital C 28   s \
	OrthoOrbital C 28   p \
	OrthoOrbital C 28   px \
	OrthoOrbital C 28   py \
	OrthoOrbital C 28   pz \
	OrthoOrbital C 29   s \
	OrthoOrbital C 29   p \
	OrthoOrbital C 29   px \
	OrthoOrbital C 29   py \
	OrthoOrbital C 29   pz \
	OrthoOrbital C 30   s \
	OrthoOrbital C 30   p \
	OrthoOrbital C 30   px \
	OrthoOrbital C 30   py \
	OrthoOrbital C 30   pz \
	OrthoOrbital C 31   s \
	OrthoOrbital C 31   p \
	OrthoOrbital C 31   px \
	OrthoOrbital C 31   py \
	OrthoOrbital C 31   pz \
	OrthoOrbital C 32   s \
	OrthoOrbital C 32   p \
	OrthoOrbital C 32   px \
	OrthoOrbital C 32   py \
	OrthoOrbital C 32   pz \
	OrthoOrbital C 33   s \
	OrthoOrbital C 33   p \
	OrthoOrbital C 33   px \
	OrthoOrbital C 33   py \
	OrthoOrbital C 33   pz \
	OrthoOrbital C 34   s \
	OrthoOrbital C 34   p \
	OrthoOrbital C 34   px \
	OrthoOrbital C 34   py \
	OrthoOrbital C 34   pz \
	OrthoOrbital C 35   s \
	OrthoOrbital C 35   p \
	OrthoOrbital C 35   px \
	OrthoOrbital C 35   py \
	OrthoOrbital C 35   pz \
	OrthoOrbital C 36   s \
	OrthoOrbital C 36   p \
	OrthoOrbital C 36   px \
	OrthoOrbital C 36   py \
	OrthoOrbital C 36   pz \
	OrthoOrbital C 37   s \
	OrthoOrbital C 37   p \
	OrthoOrbital C 37   px \
	OrthoOrbital C 37   py \
	OrthoOrbital C 37   pz \
	OrthoOrbital C 38   s \
	OrthoOrbital C 38   p \
	OrthoOrbital C 38   px \
	OrthoOrbital C 38   py \
	OrthoOrbital C 38   pz \
	OrthoOrbital C 39   s \
	OrthoOrbital C 39   p \
	OrthoOrbital C 39   px \
	OrthoOrbital C 39   py \
	OrthoOrbital C 39   pz \
	OrthoOrbital C 40   s \
	OrthoOrbital C 40   p \
	OrthoOrbital C 40   px \
	OrthoOrbital C 40   py \
	OrthoOrbital C 40   pz \
	OrthoOrbital C 41   s \
	OrthoOrbital C 41   p \
	OrthoOrbital C 41   px \
	OrthoOrbital C 41   py \
	OrthoOrbital C 41   pz \
	OrthoOrbital C 42   s \
	OrthoOrbital C 42   p \
	OrthoOrbital C 42   px \
	OrthoOrbital C 42   py \
	OrthoOrbital C 42   pz \
	OrthoOrbital C 43   s \
	OrthoOrbital C 43   p \
	OrthoOrbital C 43   px \
	OrthoOrbital C 43   py \
	OrthoOrbital C 43   pz \
	OrthoOrbital C 44   s \
	OrthoOrbital C 44   p \
	OrthoOrbital C 44   px \
	OrthoOrbital C 44   py \
	OrthoOrbital C 44   pz \
	OrthoOrbital C 45   s \
	OrthoOrbital C 45   p \
	OrthoOrbital C 45   px \
	OrthoOrbital C 45   py \
	OrthoOrbital C 45   pz \
	OrthoOrbital N 1   s \
	OrthoOrbital N 1   p \
	OrthoOrbital N 1   px \
	OrthoOrbital N 1   py \
	OrthoOrbital N 1   pz \
	OrthoOrbital N 2   s \
	OrthoOrbital N 2   p \
	OrthoOrbital N 2   px \
	OrthoOrbital N 2   py \
	OrthoOrbital N 2   pz \
	OrthoOrbital N 3   s \
	OrthoOrbital N 3   p \
	OrthoOrbital N 3   px \
	OrthoOrbital N 3   py \
	OrthoOrbital N 3   pz \
	OrthoOrbital N 4   s \
	OrthoOrbital N 4   p \
	OrthoOrbital N 4   px \
	OrthoOrbital N 4   py \
	OrthoOrbital N 4   pz \
	OrthoOrbital Ti 1   s \
	OrthoOrbital Ti 1   p \
	OrthoOrbital Ti 1   px \
	OrthoOrbital Ti 1   py \
	OrthoOrbital Ti 1   pz \
	OrthoOrbital Ti 1   d \
	OrthoOrbital Ti 1   dxy \
	OrthoOrbital Ti 1   dyz \
	OrthoOrbital Ti 1   dz2 \
	OrthoOrbital Ti 1   dxz \
	OrthoOrbital Ti 1   dx2-y2 \
	OrthoOrbital O 1   s \
	OrthoOrbital O 1   p \
	OrthoOrbital O 1   px \
	OrthoOrbital O 1   py \
	OrthoOrbital O 1   pz \
	OrthoOrbital O 2   s \
	OrthoOrbital O 2   p \
	OrthoOrbital O 2   px \
	OrthoOrbital O 2   py \
	OrthoOrbital O 2   pz
dump End ElecDensity KEdensity BandEigs EigStats RhoAtom DOS Kpoints
dump Ionic State IonicPositions Lattice EigStats Ecomponents
dump 
dump 
dump 
dump 
dump 
dump 
dump 
dump 
dump-name jdft.$VAR
elec-cutoff 20
elec-eigen-algo Davidson
elec-ex-corr gga-PBE
elec-initial-magnetization 0.000000 no
elec-n-bands 135
elec-smearing Fermi 0.001
electronic-minimize  \
	dirUpdateScheme      FletcherReeves \
	linminMethod         DirUpdateRecommended \
	nIterations          100 \
	history              15 \
	knormThreshold       0 \
	energyDiffThreshold  1e-07 \
	nEnergyDiff          2 \
	alphaTstart          1 \
	alphaTmin            1e-10 \
	updateTestStepSize   yes \
	alphaTreduceFactor   0.1 \
	alphaTincreaseFactor 3 \
	nAlphaAdjustMax      3 \
	wolfeEnergy          0.0001 \
	wolfeGradient        0.9 \
	fdTest               no
exchange-regularization WignerSeitzTruncated
fluid LinearPCM 298.000000 1.013250
fluid-anion F- 0.5 MeanFieldLJ \
	epsBulk 1 \
	pMol 0 \
	epsInf 1 \
	Pvap 0 \
	sigmaBulk 0 \
	Rvdw 2.24877 \
	Res 0 \
	tauNuc 343133
fluid-cation Na+ 0.5 MeanFieldLJ \
	epsBulk 1 \
	pMol 0 \
	epsInf 1 \
	Pvap 0 \
	sigmaBulk 0 \
	Rvdw 2.19208 \
	Res 0 \
	tauNuc 343133
fluid-ex-corr lda-TF lda-PZ
fluid-gummel-loop 10 1.000000e-05
fluid-minimize  \
	dirUpdateScheme      PolakRibiere \
	linminMethod         DirUpdateRecommended \
	nIterations          400 \
	history              15 \
	knormThreshold       1e-11 \
	energyDiffThreshold  0 \
	nEnergyDiff          2 \
	alphaTstart          1 \
	alphaTmin            1e-10 \
	updateTestStepSize   yes \
	alphaTreduceFactor   0.1 \
	alphaTincreaseFactor 3 \
	nAlphaAdjustMax      6 \
	wolfeEnergy          0.0001 \
	wolfeGradient        0.9 \
	fdTest               no
fluid-solvent H2O 55.338 ScalarEOS \
	epsBulk 78.4 \
	pMol 0.92466 \
	epsInf 1.77 \
	Pvap 1.06736e-10 \
	sigmaBulk 4.62e-05 \
	Rvdw 2.61727 \
	Res 1.42 \
	tauNuc 343133 \
	poleEl 15 7 1
forces-output-coords Positions
ion C  -0.000753000000000   0.050056000000000   0.034562000000000 0
ion C  21.044643000000004   4.007367000000001   0.012544000000000 0
ion C  18.699342000000001   8.014849999999999  43.182864000000009 0
ion C  -7.039718000000000  12.018299000000003  43.174688000000010 0
ion C  -9.364061000000001  16.034796000000004  43.247575000000005 0
ion C   4.687222000000001   0.165520000000000   0.066528000000000 0
ion C   2.286017000000000   4.169709000000001   0.144044000000000 0
ion C  -0.121115000000001   7.987153000000002   0.080370000000000 0
ion C  -2.432136000000002  12.005117000000002  43.239746000000004 0
ion C  -4.722146000000000  16.038021000000004  43.248181000000010 0
ion C   9.375968000000000   0.055799000000000   0.031145000000000 0
ion C   7.083386000000001   4.171377000000001   0.131110000000000 0
ion C  -0.030818000000002  15.938617000000006   0.053422000000000 0
ion C   2.346529000000000  19.896278000000002   0.042867000000000 0
ion C  11.760614000000000   3.999500000000001   0.004196000000000 0
ion C   9.484742000000001   7.993870000000003   0.058180000000000 0
ion C   4.675402000000002  15.795212000000001   0.147677000000000 0
ion C   6.997677000000001  19.900348000000005   0.042521000000000 0
ion C  16.402545000000003   3.982695000000001  43.226553000000010 0
ion C  14.100070000000002   8.011160000000000  43.178668000000009 0
ion C  11.789479999999999  12.016436000000001  43.230446000000008 0
ion C   9.381734000000000  15.947420000000001   0.046717000000000 0
ion C  -0.018753000000000   2.735228000000001   0.051994000000000 0
ion C  -2.425513000000001   6.664537000000002  43.245326000000006 0
ion C  -4.739769000000001  10.668115000000002  43.180139000000004 0
ion C  -7.042045000000002  14.697079000000004  43.217339000000010 0
ion C  -9.369993000000001  18.722252000000005   0.033999000000000 0
ion C   4.685285000000001   2.884441000000000   0.140713000000000 0
ion C  -0.125966000000000  10.687558000000001   0.077299000000000 0
ion C  -2.400665000000000  14.680412000000002   0.006445000000000 0
ion C  -4.720331999999999  18.725343000000002   0.032096000000000 0
ion C   9.390110999999999   2.740697000000000   0.042434000000000 0
ion C   2.276200999999999  14.506320000000002   0.145471000000000 0
ion C  -0.016042000000001  18.623315000000005   0.037114000000000 0
ion C  14.081766000000002   2.641851000000000  43.255751000000004 0
ion C  11.791170000000001   6.674754000000001  43.233993000000005 0
ion C   9.485584999999999  10.695037000000003   0.056839000000000 0
ion C   7.077071000000000  14.511962000000002   0.134787000000000 0
ion C   4.673195000000002  18.514473000000002   0.077775000000000 0
ion C  18.725368000000000   2.645875000000000   0.001687000000000 0
ion C  16.400710000000000   6.660757000000001  43.179360000000010 0
ion C  14.098802000000001  10.682598000000000  43.176505000000006 0
ion C  11.753138000000000  14.691858000000002   0.000865000000000 0
ion C   9.362727000000000  18.631913000000004   0.036249000000000 0
ion C   4.698619000000000   8.422869000000002   5.439265000000001 1
ion N   2.147042000000001  11.915443000000003   0.221905000000000 0
ion N   7.211359000000000  11.921486000000003   0.199541000000000 0
ion N   2.159401000000001   6.764161000000001   0.234146000000000 0
ion N   7.206882999999999   6.765263000000000   0.208322000000000 0
ion Ti   4.694493000000000   9.339489000000002   1.670299000000000 0
ion O   4.683724000000000  10.911368000000003   5.061594000000001 1
ion O   4.695471000000002   7.349970000000000   7.515741000000002 1
ion-species /projects/musgravc/apps/jdftx-1.6.0/build/pseudopotentials/GBRV_v1.5/$ID_pbe_v1.uspp
ion-species /projects/musgravc/apps/jdftx-1.6.0/build/pseudopotentials/GBRV_v1.5/$ID_pbe_v1.2.uspp
ion-species /projects/musgravc/apps/jdftx-1.6.0/build/pseudopotentials/GBRV_v1.5/$ID_pbe_v1.4.uspp
ion-species /projects/musgravc/apps/jdftx-1.6.0/build/pseudopotentials/GBRV_v1.5/$ID_pbe_v1.5.uspp
ion-width Ecut
ionic-minimize  \
	dirUpdateScheme      L-BFGS \
	linminMethod         DirUpdateRecommended \
	nIterations          100 \
	history              15 \
	knormThreshold       0.0001 \
	energyDiffThreshold  1e-06 \
	nEnergyDiff          2 \
	alphaTstart          1 \
	alphaTmin            1e-10 \
	updateTestStepSize   yes \
	alphaTreduceFactor   0.1 \
	alphaTincreaseFactor 1 \
	nAlphaAdjustMax      1 \
	wolfeEnergy          0.0001 \
	wolfeGradient        0.9 \
	fdTest               no
kpoint   0.000000000000   0.000000000000   0.000000000000  1.00000000000000
kpoint-folding 3 3 1 
latt-move-scale 0 0 0
latt-scale 1 1 1 
lattice  \
	  23.436261999999999  -11.733459000000000    0.000000000000000  \
	   0.017994000000000   19.941849000000001    0.000000000000000  \
	   0.000000000000000    0.000000000000000   43.256312999999999 
lattice-minimize  \
	dirUpdateScheme      L-BFGS \
	linminMethod         DirUpdateRecommended \
	nIterations          0 \
	history              15 \
	knormThreshold       0 \
	energyDiffThreshold  1e-06 \
	nEnergyDiff          2 \
	alphaTstart          1 \
	alphaTmin            1e-10 \
	updateTestStepSize   yes \
	alphaTreduceFactor   0.1 \
	alphaTincreaseFactor 3 \
	nAlphaAdjustMax      3 \
	wolfeEnergy          0.0001 \
	wolfeGradient        0.9 \
	fdTest               no
lcao-params 30 1e-06 0.001
pcm-variant CANDLE
spintype z-spin
subspace-rotation-factor 1 yes
symmetries none
symmetry-threshold 0.0001
target-mu -0.1602 no

van-der-waals D3
vibrations \
	dr 0.01\
	centralDiff no\
	useConstraints yes\
	translationSym yes\
	rotationSym no\
	omegaMin 0.0002\
	T 298\
	omegaResolution 0.0001


Applied RMS atom displacement 0 bohrs to make symmetries exact.
Applied RMS atom displacement 0 bohrs to make symmetries exact.

---------- Initializing the Grid ----------
R = 
[      23.4363     -11.7335            0  ]
[     0.017994      19.9418            0  ]
[            0            0      43.2563  ]
unit cell volume = 20225.5
G =
[   0.267976   0.157673         -0  ]
[ -0.000241801   0.314933          0  ]
[          0         -0   0.145255  ]
Minimum fftbox size, Smin = [  96  96  176  ]
Chosen fftbox size, S = [  96  96  180  ]

---------- Exchange Correlation functional ----------
Initalized PBE GGA exchange.
Initalized PBE GGA correlation.

---------- Setting up pseudopotentials ----------
Width of ionic core gaussian charges (only for fluid interactions / plotting) set to 0.397384

Reading pseudopotential file '/projects/musgravc/apps/jdftx-1.6.0/build/pseudopotentials/GBRV_v1.5/c_pbe_v1.2.uspp':
  Title: C.  Created by USPP 7.3.6 on 3-2-2014
  Reference state energy: -5.406344.  4 valence electrons in orbitals:
    |200>  occupation: 2  eigenvalue: -0.504890
    |210>  occupation: 2  eigenvalue: -0.194356
  lMax: 1  lLocal: 2  QijEcut: 5
  4 projectors sampled on a log grid with 503 points:
    l: 0  eig: -0.504890  rCut: 1.3
    l: 0  eig: 0.000000  rCut: 1.3
    l: 1  eig: -0.194357  rCut: 1.3
    l: 1  eig: 0.000000  rCut: 1.3
  Partial core density with radius 1.1
  Transforming core density to a uniform radial grid of dG=0.02 with 1464 points.
  Transforming local potential to a uniform radial grid of dG=0.02 with 1464 points.
  Transforming nonlocal projectors to a uniform radial grid of dG=0.02 with 432 points.
  Transforming density augmentations to a uniform radial grid of dG=0.02 with 1464 points.
  Transforming atomic orbitals to a uniform radial grid of dG=0.02 with 432 points.
  Core radius for overlap checks: 1.30 bohrs.

Reading pseudopotential file '/projects/musgravc/apps/jdftx-1.6.0/build/pseudopotentials/GBRV_v1.5/n_pbe_v1.2.uspp':
  Title: N.  Created by USPP 7.3.6 on 3-2-2014
  Reference state energy: -9.763716.  5 valence electrons in orbitals:
    |200>  occupation: 2  eigenvalue: -0.681964
    |210>  occupation: 3  eigenvalue: -0.260726
  lMax: 1  lLocal: 2  QijEcut: 6
  4 projectors sampled on a log grid with 491 points:
    l: 0  eig: -0.681964  rCut: 1.15
    l: 0  eig: 0.000000  rCut: 1.15
    l: 1  eig: -0.260729  rCut: 1.2
    l: 1  eig: 0.500000  rCut: 1.2
  Partial core density with radius 0.8
  Transforming core density to a uniform radial grid of dG=0.02 with 1464 points.
  Transforming local potential to a uniform radial grid of dG=0.02 with 1464 points.
  Transforming nonlocal projectors to a uniform radial grid of dG=0.02 with 432 points.
  Transforming density augmentations to a uniform radial grid of dG=0.02 with 1464 points.
  Transforming atomic orbitals to a uniform radial grid of dG=0.02 with 432 points.
  Core radius for overlap checks: 1.20 bohrs.

Reading pseudopotential file '/projects/musgravc/apps/jdftx-1.6.0/build/pseudopotentials/GBRV_v1.5/ti_pbe_v1.4.uspp':
  Title: Ti.  Created by USPP 7.3.6 on 31-3-15
  Reference state energy: -59.020943.  12 valence electrons in orbitals:
    |300>  occupation: 2  eigenvalue: -2.777623
    |310>  occupation: 6  eigenvalue: -1.894596
    |400>  occupation: 2  eigenvalue: -0.438610
    |320>  occupation: 1  eigenvalue: -0.583119
  lMax: 2  lLocal: 3  QijEcut: 6
  6 projectors sampled on a log grid with 597 points:
    l: 0  eig: -2.777624  rCut: 1.8
    l: 0  eig: -0.438611  rCut: 1.8
    l: 1  eig: -1.894596  rCut: 1.8
    l: 1  eig: 0.500000  rCut: 1.8
    l: 2  eig: -0.583118  rCut: 1.8
    l: 2  eig: 0.150000  rCut: 1.8
  Partial core density with radius 0.8
  Transforming core density to a uniform radial grid of dG=0.02 with 1464 points.
  Transforming local potential to a uniform radial grid of dG=0.02 with 1464 points.
  Transforming nonlocal projectors to a uniform radial grid of dG=0.02 with 432 points.
  Transforming density augmentations to a uniform radial grid of dG=0.02 with 1464 points.
  Transforming atomic orbitals to a uniform radial grid of dG=0.02 with 432 points.
  Core radius for overlap checks: 1.80 bohrs.

Reading pseudopotential file '/projects/musgravc/apps/jdftx-1.6.0/build/pseudopotentials/GBRV_v1.5/o_pbe_v1.2.uspp':
  Title: O.  Created by USPP 7.3.6 on 3-2-2014
  Reference state energy: -15.894388.  6 valence electrons in orbitals:
    |200>  occupation: 2  eigenvalue: -0.878823
    |210>  occupation: 4  eigenvalue: -0.332131
  lMax: 2  lLocal: 2  QijEcut: 6
  5 projectors sampled on a log grid with 511 points:
    l: 0  eig: -0.878823  rCut: 1.25
    l: 0  eig: 0.000000  rCut: 1.25
    l: 1  eig: -0.332132  rCut: 1.25
    l: 1  eig: 0.000000  rCut: 1.25
    l: 2  eig: 1.000000  rCut: 1.25
  Partial core density with radius 0.7
  Transforming core density to a uniform radial grid of dG=0.02 with 1464 points.
  Transforming local potential to a uniform radial grid of dG=0.02 with 1464 points.
  Transforming nonlocal projectors to a uniform radial grid of dG=0.02 with 432 points.
  Transforming density augmentations to a uniform radial grid of dG=0.02 with 1464 points.
  Transforming atomic orbitals to a uniform radial grid of dG=0.02 with 432 points.
  Core radius for overlap checks: 1.25 bohrs.

Initialized 4 species with 52 total atoms.

Folded 1 k-points by 3x3x1 to 9 k-points.

---------- Setting up k-points, bands, fillings ----------
No reducable k-points. 
Computing the number of bands and number of electrons
Calculating initial fillings.
nElectrons: 224.000000   nBands: 135   nStates: 18

----- Setting up reduced wavefunction bases (one per k-point) -----
average nbasis = 86412.556 , ideal nbasis = 86404.907

----- Initializing Supercell corresponding to k-point mesh -----
Lattice vector linear combinations in supercell:
[   3   0   0  ]
[   0   3   0  ]
[   0   0   1  ]
Supercell lattice vectors:
[  70.3088  -35.2004  0  ]
[  0.053982  59.8255  0  ]
[  0  0  43.2563  ]

Initializing DFT-D3 calculator:
	Parameters set for gga-PBE functional
	s6:  1.000  s_r6:  1.217
	s8:  0.722  s_r8:  1.000
	Per-atom parameters loaded for:
	 C:  sqrtQ[a0]:  3.105  Rcov[a0]:  1.417  CN: [ 0.00 0.99 2.00 3.00 3.98 ]
	 N:  sqrtQ[a0]:  2.712  Rcov[a0]:  1.342  CN: [ 0.00 0.99 2.01 2.99 ]
	Ti:  sqrtQ[a0]:  6.288  Rcov[a0]:  2.305  CN: [ 0.00 1.83 3.87 ]
	 O:  sqrtQ[a0]:  2.594  Rcov[a0]:  1.191  CN: [ 0.00 0.99 1.99 ]

Initializing DFT-D2 calculator for fluid / solvation:
	 C:  C6:   30.35 Eh-a0^6  R0: 2.744 a0
	 N:  C6:   21.33 Eh-a0^6  R0: 2.640 a0
	Ti:  C6:  187.33 Eh-a0^6  R0: 2.952 a0
	 O:  C6:   12.14 Eh-a0^6  R0: 2.536 a0

---------- Setting up ewald sum ----------
Optimum gaussian width for ewald sums = 5.626124 bohr.
Real space sum over 567 unit cells with max indices [  4  4  3  ]
Reciprocal space sum over 7803 terms with max indices [  8  8  13  ]

Computing DFT-D3 correction:
# coordination-number C 3.302 3.323 3.335 3.334 3.314 3.290 3.327 3.591 3.330 3.314 3.302 3.328 3.304 3.301 3.324 3.601 3.265 3.301 3.319 3.336 3.330 3.304 3.304 3.329 3.336 3.320 3.301 3.266 3.589 3.324 3.301 3.304 3.327 3.302 3.313 3.329 3.599 3.328 3.289 3.313 3.333 3.336 3.324 3.302 2.997
# coordination-number N 3.178 3.179 3.178 3.179
# coordination-number Ti 7.473
# coordination-number O 2.002 1.035
# diagonal-C6 C 24.26 24.05 23.91 23.93 24.15 24.38 24.01 20.39 23.97 24.15 24.26 24.00 24.24 24.28 24.04 20.26 24.59 24.28 24.09 23.91 23.97 24.24 24.25 23.99 23.91 24.08 24.27 24.58 20.41 24.04 24.27 24.24 24.01 24.27 24.15 23.98 20.28 24.00 24.38 24.15 23.94 23.91 24.04 24.27 25.68
# diagonal-C6 N 15.60 15.60 15.60 15.60
# diagonal-C6 Ti 321.59
# diagonal-C6 O 10.41 12.78
EvdW_6 =   -0.039682
EvdW_8 =   -0.031900

---------- Allocating electronic variables ----------
Initializing wave functions:  linear combination of atomic orbitals
C pseudo-atom occupations:   s ( 2 )  p ( 2 )
N pseudo-atom occupations:   s ( 2 )  p ( 3 )
Ti pseudo-atom occupations:   s ( 2 0 )  p ( 6 )  d ( 4 )
O pseudo-atom occupations:   s ( 2 )  p ( 4 )
	FillingsUpdate:  mu: -0.160200000  nElectrons: 224.000000  magneticMoment: [ Abs: 0.00435  Tot: +0.00001 ]
LCAOMinimize: Iter:   0  G: -345.8948589271616925  |grad|_K:  4.275e-03  alpha:  1.000e+00
	FillingsUpdate:  mu: -0.160200000  nElectrons: 224.000000  magneticMoment: [ Abs: 0.00427  Tot: -0.00000 ]
LCAOMinimize: Iter:   1  G: -347.2780534197547126  |grad|_K:  1.464e-03  alpha:  1.349e-01  linmin: -1.397e-01  cgtest:  1.783e+00  t[s]:    296.56
LCAOMinimize: Encountered beta<0, resetting CG.
LCAOMinimize: 	Wrong curvature in test step, increasing alphaT to 4.048171e-01.
	FillingsUpdate:  mu: -0.160200000  nElectrons: 224.000000  magneticMoment: [ Abs: 0.00472  Tot: -0.00059 ]
LCAOMinimize: Iter:   2  G: -347.5963327831743186  |grad|_K:  1.790e-03  alpha: -2.088e-01  linmin:  2.777e-02  cgtest:  5.667e-01  t[s]:    419.79
LCAOMinimize: 	Step increased G by 5.722670e-03, reducing alpha to 1.067640e-03.
	FillingsUpdate:  mu: -0.160200000  nElectrons: 224.000000  magneticMoment: [ Abs: 0.00473  Tot: -0.00060 ]
LCAOMinimize: Iter:   3  G: -347.5969163296048237  |grad|_K:  1.874e-03  alpha:  1.068e-03  linmin: -2.856e-03  cgtest:  9.931e-01  t[s]:    634.14
LCAOMinimize: 	Predicted alpha/alphaT>3.000000, increasing alphaT to 3.202919e-03.
LCAOMinimize: 	Predicted alpha/alphaT>3.000000, increasing alphaT to 9.608757e-03.
LCAOMinimize: 	Predicted alpha/alphaT>3.000000, increasing alphaT to 2.882627e-02.
	FillingsUpdate:  mu: -0.160200000  nElectrons: 224.000000  magneticMoment: [ Abs: 0.00483  Tot: -0.00071 ]
LCAOMinimize: Iter:   4  G: -347.6659259708048921  |grad|_K:  1.349e-03  alpha:  3.766e-02  linmin: -3.121e-02  cgtest:  2.636e-01  t[s]:    809.78
LCAOMinimize: 	Wrong curvature in test step, increasing alphaT to 1.129909e-01.
	FillingsUpdate:  mu: -0.160200000  nElectrons: 224.000000  magneticMoment: [ Abs: 0.00518  Tot: -0.00109 ]
LCAOMinimize: Iter:   5  G: -347.7386245364413639  |grad|_K:  1.262e-03  alpha: -7.853e-01  linmin: -8.137e-02  cgtest:  9.041e-01  t[s]:    937.70
	FillingsUpdate:  mu: -0.160200000  nElectrons: 224.000000  magneticMoment: [ Abs: 0.00555  Tot: -0.00147 ]
LCAOMinimize: Iter:   6  G: -347.7802293992079967  |grad|_K:  1.233e-03  alpha:  3.014e-02  linmin: -1.695e-01  cgtest:  9.166e-01  t[s]:   1054.38
LCAOMinimize: 	Wrong curvature in test step, increasing alphaT to 9.042069e-02.
	FillingsUpdate:  mu: -0.160200000  nElectrons: 224.000000  magneticMoment: [ Abs: 0.00593  Tot: -0.00187 ]
LCAOMinimize: Iter:   7  G: -347.8220228997685126  |grad|_K:  1.232e-03  alpha: -5.111e-01  linmin: -2.070e-01  cgtest:  9.404e-01  t[s]:   1167.74
	FillingsUpdate:  mu: -0.160200000  nElectrons: 224.000000  magneticMoment: [ Abs: 0.00642  Tot: -0.00238 ]
LCAOMinimize: Iter:   8  G: -347.8631782955343965  |grad|_K:  1.232e-03  alpha:  2.965e-02  linmin: -2.157e-01  cgtest:  9.402e-01  t[s]:   1295.12
LCAOMinimize: 	Wrong curvature in test step, increasing alphaT to 8.896254e-02.
	FillingsUpdate:  mu: -0.160200000  nElectrons: 224.000000  magneticMoment: [ Abs: 0.00702  Tot: -0.00300 ]
LCAOMinimize: Iter:   9  G: -347.9044455865189320  |grad|_K:  1.231e-03  alpha: -4.685e-01  linmin: -2.205e-01  cgtest:  9.385e-01  t[s]:   1409.37
	FillingsUpdate:  mu: -0.160200000  nElectrons: 224.000000  magneticMoment: [ Abs: 0.00777  Tot: -0.00378 ]
LCAOMinimize: Iter:  10  G: -347.9461459955974192  |grad|_K:  1.227e-03  alpha:  2.999e-02  linmin: -2.267e-01  cgtest:  9.365e-01  t[s]:   1525.12
LCAOMinimize: 	Wrong curvature in test step, increasing alphaT to 8.997362e-02.
	FillingsUpdate:  mu: -0.160200000  nElectrons: 224.000000  magneticMoment: [ Abs: 0.00868  Tot: -0.00472 ]
LCAOMinimize: Iter:  11  G: -347.9875085514218540  |grad|_K:  1.218e-03  alpha: -4.933e-01  linmin: -2.332e-01  cgtest:  9.358e-01  t[s]:   1638.70
	FillingsUpdate:  mu: -0.160200000  nElectrons: 224.000000  magneticMoment: [ Abs: 0.00977  Tot: -0.00584 ]
LCAOMinimize: Iter:  12  G: -348.0276886218433674  |grad|_K:  1.203e-03  alpha:  2.973e-02  linmin: -2.395e-01  cgtest:  9.366e-01  t[s]:   1769.16
LCAOMinimize: 	Wrong curvature in test step, increasing alphaT to 8.918868e-02.
	FillingsUpdate:  mu: -0.160200000  nElectrons: 224.000000  magneticMoment: [ Abs: 0.01108  Tot: -0.00718 ]
LCAOMinimize: Iter:  13  G: -348.0665183916838714  |grad|_K:  1.181e-03  alpha: -6.166e-01  linmin: -2.459e-01  cgtest:  9.376e-01  t[s]:   1883.57
	FillingsUpdate:  mu: -0.160200000  nElectrons: 224.000000  magneticMoment: [ Abs: 0.01256  Tot: -0.00869 ]
LCAOMinimize: Iter:  14  G: -348.1016652905146884  |grad|_K:  1.153e-03  alpha:  2.830e-02  linmin: -2.516e-01  cgtest:  9.422e-01  t[s]:   1999.55
LCAOMinimize: 	Wrong curvature in test step, increasing alphaT to 8.491485e-02.
	FillingsUpdate:  mu: -0.160200000  nElectrons: 224.000000  magneticMoment: [ Abs: 0.01428  Tot: -0.01044 ]
LCAOMinimize: Iter:  15  G: -348.1345713660812180  |grad|_K:  1.116e-03  alpha: -1.015e+00  linmin: -2.577e-01  cgtest:  9.444e-01  t[s]:   2113.41
	FillingsUpdate:  mu: -0.160200000  nElectrons: 224.000000  magneticMoment: [ Abs: 0.01613  Tot: -0.01233 ]
LCAOMinimize: Iter:  16  G: -348.1626764671869978  |grad|_K:  1.075e-03  alpha:  2.622e-02  linmin: -2.630e-01  cgtest:  9.509e-01  t[s]:   2233.22
LCAOMinimize: 	Wrong curvature in test step, increasing alphaT to 7.866011e-02.
	FillingsUpdate:  mu: -0.160200000  nElectrons: 224.000000  magneticMoment: [ Abs: 0.01823  Tot: -0.01446 ]
LCAOMinimize: Iter:  17  G: -348.1883132355792441  |grad|_K:  1.028e-03  alpha: -4.020e+00  linmin: -2.687e-01  cgtest:  9.535e-01  t[s]:   2350.57
	FillingsUpdate:  mu: -0.160200000  nElectrons: 224.000000  magneticMoment: [ Abs: 0.02054  Tot: -0.01681 ]
LCAOMinimize: Iter:  18  G: -348.2105697434551530  |grad|_K:  9.771e-04  alpha:  2.529e-02  linmin: -2.743e-01  cgtest:  9.579e-01  t[s]:   2470.58
LCAOMinimize: Encountered beta<0, resetting CG.
LCAOMinimize: 	Predicted alpha/alphaT>3.000000, increasing alphaT to 7.587272e-02.
LCAOMinimize: 	Predicted alpha/alphaT>3.000000, increasing alphaT to 2.276182e-01.
LCAOMinimize: 	Step increased G by 2.656827e-02, reducing alpha to 3.031981e-02.
	FillingsUpdate:  mu: -0.160200000  nElectrons: 224.000000  magneticMoment: [ Abs: 0.02365  Tot: -0.01996 ]
LCAOMinimize: Iter:  19  G: -348.2344455862107111  |grad|_K:  9.090e-04  alpha:  3.032e-02  linmin: -2.818e-01  cgtest:  9.524e-01  t[s]:   2732.77
LCAOMinimize: Encountered beta<0, resetting CG.
LCAOMinimize: 	Predicted alpha/alphaT>3.000000, increasing alphaT to 9.095944e-02.
LCAOMinimize: 	Predicted alpha/alphaT>3.000000, increasing alphaT to 2.728783e-01.
	FillingsUpdate:  mu: -0.160200000  nElectrons: 224.000000  magneticMoment: [ Abs: 0.04206  Tot: -0.03857 ]
LCAOMinimize: Iter:  20  G: -348.3272099509406985  |grad|_K:  1.972e-04  alpha:  1.858e-01  linmin: -1.704e-01  cgtest:  3.860e-01  t[s]:   2915.84
LCAOMinimize: Encountered beta<0, resetting CG.
	FillingsUpdate:  mu: -0.160200000  nElectrons: 224.000000  magneticMoment: [ Abs: 0.09832  Tot: -0.09523 ]
LCAOMinimize: Iter:  21  G: -348.3317719249582183  |grad|_K:  8.258e-05  alpha:  2.909e-01  linmin:  2.562e-02  cgtest: -1.510e-01  t[s]:   3031.50
	FillingsUpdate:  mu: -0.160200000  nElectrons: 224.000000  magneticMoment: [ Abs: 0.33711  Tot: -0.33393 ]
LCAOMinimize: Iter:  22  G: -348.3325264207015266  |grad|_K:  1.924e-04  alpha:  4.662e-01  linmin:  2.067e-02  cgtest:  5.050e-02  t[s]:   3146.78
LCAOMinimize: 	Bad step direction: g.d > 0.
LCAOMinimize: 	Undoing step.
LCAOMinimize: 	Step failed: resetting search direction.
	FillingsUpdate:  mu: -0.160200000  nElectrons: 224.000000  magneticMoment: [ Abs: 0.33711  Tot: -0.33393 ]
LCAOMinimize: Iter:  23  G: -348.3325264207015266  |grad|_K:  1.924e-04  alpha:  0.000e+00
	FillingsUpdate:  mu: -0.160200000  nElectrons: 224.000000  magneticMoment: [ Abs: 0.39943  Tot: -0.39554 ]
LCAOMinimize: Iter:  24  G: -348.3339829841173696  |grad|_K:  9.071e-05  alpha:  1.385e-01  linmin:  7.376e-03  cgtest: -3.488e-01  t[s]:   3355.77
	FillingsUpdate:  mu: -0.160200000  nElectrons: 224.000000  magneticMoment: [ Abs: 0.48511  Tot: -0.47788 ]
LCAOMinimize: Iter:  25  G: -348.3347137555224435  |grad|_K:  3.726e-05  alpha:  2.241e-01  linmin: -2.184e-02  cgtest:  9.350e-01  t[s]:   3481.89
LCAOMinimize: Encountered beta<0, resetting CG.
	FillingsUpdate:  mu: -0.160200000  nElectrons: 224.000000  magneticMoment: [ Abs: 0.50977  Tot: -0.49968 ]
LCAOMinimize: Iter:  26  G: -348.3348269932393464  |grad|_K:  2.847e-05  alpha:  1.954e-01  linmin:  2.923e-03  cgtest:  1.671e-01  t[s]:   3598.44
	FillingsUpdate:  mu: -0.160200000  nElectrons: 224.000000  magneticMoment: [ Abs: 0.51277  Tot: -0.49200 ]
LCAOMinimize: Iter:  27  G: -348.3349366443235340  |grad|_K:  5.829e-05  alpha:  4.669e-01  linmin:  1.466e-02  cgtest: -5.232e-01  t[s]:   3714.42
	FillingsUpdate:  mu: -0.160200000  nElectrons: 224.000000  magneticMoment: [ Abs: 0.52157  Tot: -0.49740 ]
LCAOMinimize: Iter:  28  G: -348.3349860526296311  |grad|_K:  6.096e-05  alpha:  2.556e-02  linmin: -9.686e-04  cgtest:  9.705e-01  t[s]:   3834.97
LCAOMinimize: 	Predicted alpha/alphaT>3.000000, increasing alphaT to 7.669464e-02.
	FillingsUpdate:  mu: -0.160200000  nElectrons: 224.000000  magneticMoment: [ Abs: 0.57069  Tot: -0.54556 ]
LCAOMinimize: Iter:  29  G: -348.3351024291517888  |grad|_K:  6.666e-05  alpha:  1.179e-01  linmin:  3.469e-02  cgtest: -7.563e-01  t[s]:   3980.97
LCAOMinimize: 	Bad step direction: g.d > 0.
LCAOMinimize: 	Undoing step.
LCAOMinimize: 	Step failed: resetting search direction.
	FillingsUpdate:  mu: -0.160200000  nElectrons: 224.000000  magneticMoment: [ Abs: 0.57069  Tot: -0.54556 ]
LCAOMinimize: Iter:  30  G: -348.3351024291517888  |grad|_K:  6.666e-05  alpha:  0.000e+00
LCAOMinimize: None of the convergence criteria satisfied after 30 iterations.
----- createFluidSolver() ----- (Fluid-side solver setup)
   Initializing fluid molecule 'H2O'
     Initializing site 'O'
       Electron density: proportional to exp(-r/0.36935)*erfc((r-0.51523)/0.36823) with norm 6.826
       Charge density: gaussian nuclear width 0.478731 with net site charge 0.826
       Polarizability: cuspless exponential with width 0.32 and norm 3.73
       Hard sphere radius: 2.57003 bohrs
       Positions in reference frame:
         [ +0.000000 +0.000000 +0.000000 ]
     Initializing site 'H'
       Electron density: proportional to exp(-r/0.34641)*erfc((r-0)/0.390882) with norm 0.587
       Charge density: gaussian nuclear width 0.377945 with net site charge -0.413
       Polarizability: cuspless exponential with width 0.39 and norm 3.3
       Positions in reference frame:
         [ +0.000000 -1.441945 +1.122523 ]
         [ +0.000000 +1.441945 +1.122523 ]
     Net charge: 0   dipole magnitude: 0.927204
     Initializing spherical shell mfKernel with radius 2.61727 Bohr
     deltaS corrections:
       site 'O': -7.54299
       site 'H': -6.83917
   Initializing fluid molecule 'Na+'
     Initializing site 'Na'
       Electron density: proportional to exp(-r/0.19682)*erfc((r-0.71491)/0.41314) with norm 8.1383
       Charge density: gaussian nuclear width 0.365347 with net site charge -1
       Hard sphere radius: 1.86327 bohrs
       Positions in reference frame:
         [ +0.000000 +0.000000 +0.000000 ]
     Net charge: -1   dipole magnitude: 0
     Initializing gaussian mfKernel with width: 1.55004 Bohr
     deltaS corrections:
       site 'Na': -22.3555
   Initializing fluid molecule 'F-'
     Initializing site 'F'
       Electron density: proportional to exp(-r/0.38886)*erfc((r-0)/0.438782) with norm 8
       Charge density: gaussian nuclear width 0.374796 with net site charge 1
       Hard sphere radius: 2.39995 bohrs
       Positions in reference frame:
         [ +0.000000 +0.000000 +0.000000 ]
     Net charge: 1   dipole magnitude: 0
     Initializing gaussian mfKernel with width: 1.59012 Bohr
     deltaS corrections:
       site 'F': -9.04335

Correction to mu due to finite nuclear width = -0.0109887
   Cavity determined by nc: 0.00142 and sigma: 0.707107
   Nonlocal vdW cavity from gaussian model electron density with norm = 8 and sigma = 0.993594 bohr
   Charge asymmetry in cavity with sensitivity pCavity = 36.5 e-bohr/Eh
   Electrostatic cavity expanded by eta = 1.46 bohrs
   Weighted density cavitation model constrained by Nbulk: 0.0049383 bohr^-3, Pvap: 3.14029 kPa, Rvdw: 2.61727 bohr and sigmaBulk: 4.62e-05 Eh/bohr^2 at T: 298 K.
   Weighted density dispersion model using vdW pair potentials with single solvent site with sqrtC6eff: 0.77 SI.
WARNING: Vibrations: switching off translationSym and rotationSym since useConstraints is on.

---- Citations for features of the code used in this run ----

   Software package:
      R. Sundararaman, K. Letchworth-Weaver, K.A. Schwarz, D. Gunceler, Y. Ozhabes and T.A. Arias, 'JDFTx: software for joint density-functional theory', SoftwareX 6, 278 (2017)

   gga-PBE exchange-correlation functional:
      J.P. Perdew, K. Burke and M. Ernzerhof, Phys. Rev. Lett. 77, 3865 (1996)

   Pseudopotentials:
      KF Garrity, JW Bennett, KM Rabe and D Vanderbilt, Comput. Mater. Sci. 81, 446 (2014)

   DFT-D3 dispersion correction:
      S. Grimme, J. Antony, S. Ehrlich and H. Krieg, J. Chem. Phys. 132, 154104 (2010)

   DFT-D2 dispersion correction:
      S. Grimme, J. Comput. Chem. 27, 1787 (2006)

   Charge-asymmetric nonlocally-determined local-electric (CANDLE) solvation model:
      R. Sundararaman and W.A. Goddard III, J. Chem. Phys. 142, 064107 (2015)

   Total energy minimization with Auxiliary Hamiltonian:
      C. Freysoldt, S. Boeck, and J. Neugebauer, Phys. Rev. B 79, 241103(R) (2009)

   Grand-canonical (fixed-potential) DFT:
      R. Sundararaman, W. A. Goddard III and T. A. Arias, J. Chem. Phys. 146, 114104 (2017)

   Linear-tetrahedron sampling for density of states:
      G. Lehmann and M. Taut, Phys. status solidi (b) 54, 469 (1972)

This list may not be complete. Please suggest additional citations or
report any other bugs at https://github.com/shankar1729/jdftx/issues

Initialization completed successfully at t[s]:   4089.52

------ Vibrations::calculate() -------
WARNING: Vibrations module is experimental. Please report bugs!
Compare results with and without symmetries and report discrepancies.
Degrees of freedom: 9 total, 9 symmetry-independent.

Computing DFT-D3 correction:
# coordination-number C 3.302 3.323 3.335 3.334 3.314 3.290 3.327 3.591 3.330 3.314 3.302 3.328 3.304 3.301 3.324 3.601 3.265 3.301 3.319 3.336 3.330 3.304 3.304 3.329 3.336 3.320 3.301 3.266 3.589 3.324 3.301 3.304 3.327 3.302 3.313 3.329 3.599 3.328 3.289 3.313 3.333 3.336 3.324 3.302 2.997
# coordination-number N 3.178 3.179 3.178 3.179
# coordination-number Ti 7.473
# coordination-number O 2.002 1.035
# diagonal-C6 C 24.26 24.05 23.91 23.93 24.15 24.38 24.01 20.39 23.97 24.15 24.26 24.00 24.24 24.28 24.04 20.26 24.59 24.28 24.09 23.91 23.97 24.24 24.25 23.99 23.91 24.08 24.27 24.58 20.41 24.04 24.27 24.24 24.01 24.27 24.15 23.98 20.28 24.00 24.38 24.15 23.94 23.91 24.04 24.27 25.68
# diagonal-C6 N 15.60 15.60 15.60 15.60
# diagonal-C6 Ti 321.59
# diagonal-C6 O 10.41 12.78
EvdW_6 =   -0.039682
EvdW_8 =   -0.031900
Fluid solver invoked on fresh (random / LCAO) wavefunctions
Running a vacuum solve first:

-------- Initial electronic minimization -----------
	FillingsUpdate:  mu: -0.216045341  nElectrons: 224.000000  magneticMoment: [ Abs: 0.57069  Tot: -0.54556 ]
ElecMinimize: Iter:   0  G: -348.335589838002136  |grad|_K:  1.445e-04  alpha:  1.000e+00
	FillingsUpdate:  mu: -0.131189051  nElectrons: 224.000000  magneticMoment: [ Abs: 0.47952  Tot: -0.42499 ]
	SubspaceRotationAdjust: set factor to 1.01
ElecMinimize: Iter:   1  G: -351.290907661337826  |grad|_K:  4.578e-05  alpha:  6.828e-01  linmin:  1.067e-04  t[s]:   4281.03
	FillingsUpdate:  mu: -0.078198764  nElectrons: 224.000000  magneticMoment: [ Abs: 0.26879  Tot: -0.17163 ]
	SubspaceRotationAdjust: set factor to 0.932
ElecMinimize: Iter:   2  G: -351.390492070163873  |grad|_K:  3.561e-05  alpha:  1.417e-01  linmin: -1.588e-03  t[s]:   4394.96
	FillingsUpdate:  mu: -0.087926765  nElectrons: 224.000000  magneticMoment: [ Abs: 0.46022  Tot: -0.39123 ]
	SubspaceRotationAdjust: set factor to 0.598
ElecMinimize: Iter:   3  G: -351.513951699691916  |grad|_K:  4.202e-05  alpha:  3.043e-01  linmin:  9.549e-05  t[s]:   4509.25
	FillingsUpdate:  mu: -0.102602377  nElectrons: 224.000000  magneticMoment: [ Abs: 0.30464  Tot: -0.25301 ]
	SubspaceRotationAdjust: set factor to 1.04
ElecMinimize: Iter:   4  G: -351.553827351077416  |grad|_K:  2.385e-05  alpha:  1.300e-01  linmin:  7.389e-05  t[s]:   4622.96
	FillingsUpdate:  mu: -0.097253367  nElectrons: 224.000000  magneticMoment: [ Abs: 0.14494  Tot: -0.06133 ]
	SubspaceRotationAdjust: set factor to 1.01
ElecMinimize: Iter:   5  G: -351.575675729333966  |grad|_K:  1.990e-05  alpha:  1.859e-01  linmin: -1.606e-04  t[s]:   4736.64
	FillingsUpdate:  mu: -0.112508126  nElectrons: 224.000000  magneticMoment: [ Abs: 0.16796  Tot: -0.12110 ]
	SubspaceRotationAdjust: set factor to 1.15
ElecMinimize: Iter:   6  G: -351.601635777918602  |grad|_K:  1.431e-05  alpha:  2.819e-01  linmin:  8.582e-05  t[s]:   4850.47
	FillingsUpdate:  mu: -0.100456977  nElectrons: 224.000000  magneticMoment: [ Abs: 0.16036  Tot: -0.10840 ]
	SubspaceRotationAdjust: set factor to 0.973
ElecMinimize: Iter:   7  G: -351.609537172165460  |grad|_K:  1.044e-05  alpha:  1.790e-01  linmin: -1.271e-04  t[s]:   4969.70
	FillingsUpdate:  mu: -0.089541866  nElectrons: 224.000000  magneticMoment: [ Abs: 0.11036  Tot: -0.05107 ]
	SubspaceRotationAdjust: set factor to 0.96
ElecMinimize: Iter:   8  G: -351.615495280497612  |grad|_K:  9.090e-06  alpha:  2.527e-01  linmin: -1.301e-04  t[s]:   5083.32
	FillingsUpdate:  mu: -0.101279988  nElectrons: 224.000000  magneticMoment: [ Abs: 0.11646  Tot: -0.08551 ]
	SubspaceRotationAdjust: set factor to 0.847
ElecMinimize: Iter:   9  G: -351.618924728591651  |grad|_K:  6.005e-06  alpha:  1.874e-01  linmin:  3.337e-06  t[s]:   5197.40
	FillingsUpdate:  mu: -0.105118416  nElectrons: 224.000000  magneticMoment: [ Abs: 0.12325  Tot: -0.10578 ]
	SubspaceRotationAdjust: set factor to 0.581
ElecMinimize: Iter:  10  G: -351.621152032792736  |grad|_K:  6.370e-06  alpha:  2.986e-01  linmin:  7.433e-05  t[s]:   5310.94
	FillingsUpdate:  mu: -0.101283715  nElectrons: 224.000000  magneticMoment: [ Abs: 0.08593  Tot: -0.06561 ]
	SubspaceRotationAdjust: set factor to 0.776
ElecMinimize: Iter:  11  G: -351.622181694003416  |grad|_K:  3.292e-06  alpha:  1.399e-01  linmin:  1.262e-04  t[s]:   5425.13
	FillingsUpdate:  mu: -0.099623081  nElectrons: 224.000000  magneticMoment: [ Abs: 0.07457  Tot: -0.05499 ]
	SubspaceRotationAdjust: set factor to 0.786
ElecMinimize: Iter:  12  G: -351.622814030427946  |grad|_K:  2.865e-06  alpha:  2.924e-01  linmin:  4.551e-06  t[s]:   5539.00
	FillingsUpdate:  mu: -0.103110007  nElectrons: 224.000000  magneticMoment: [ Abs: 0.08074  Tot: -0.06716 ]
	SubspaceRotationAdjust: set factor to 0.777
ElecMinimize: Iter:  13  G: -351.623238103630854  |grad|_K:  2.257e-06  alpha:  2.453e-01  linmin:  2.875e-05  t[s]:   5652.46
	FillingsUpdate:  mu: -0.103094757  nElectrons: 224.000000  magneticMoment: [ Abs: 0.07366  Tot: -0.06224 ]
	SubspaceRotationAdjust: set factor to 0.726
ElecMinimize: Iter:  14  G: -351.623499949207542  |grad|_K:  1.897e-06  alpha:  2.463e-01  linmin: -8.069e-05  t[s]:   5770.99
	FillingsUpdate:  mu: -0.101946359  nElectrons: 224.000000  magneticMoment: [ Abs: 0.07021  Tot: -0.06092 ]
	SubspaceRotationAdjust: set factor to 1.01
ElecMinimize: Iter:  15  G: -351.623728641113416  |grad|_K:  1.329e-06  alpha:  3.002e-01  linmin: -2.003e-05  t[s]:   5884.24
	FillingsUpdate:  mu: -0.102600087  nElectrons: 224.000000  magneticMoment: [ Abs: 0.07650  Tot: -0.06889 ]
	SubspaceRotationAdjust: set factor to 0.778
ElecMinimize: Iter:  16  G: -351.623808263065598  |grad|_K:  1.101e-06  alpha:  2.124e-01  linmin:  6.903e-06  t[s]:   5997.52
	FillingsUpdate:  mu: -0.102007016  nElectrons: 224.000000  magneticMoment: [ Abs: 0.07270  Tot: -0.06564 ]
	SubspaceRotationAdjust: set factor to 0.918
ElecMinimize: Iter:  17  G: -351.623901764740538  |grad|_K:  7.962e-07  alpha:  3.670e-01  linmin: -5.944e-06  t[s]:   6117.15
	FillingsUpdate:  mu: -0.102401910  nElectrons: 224.000000  magneticMoment: [ Abs: 0.07160  Tot: -0.06484 ]
	SubspaceRotationAdjust: set factor to 0.882
ElecMinimize: Iter:  18  G: -351.623943679892136  |grad|_K:  6.216e-07  alpha:  3.139e-01  linmin: -2.208e-06  t[s]:   6236.65
	FillingsUpdate:  mu: -0.102732626  nElectrons: 224.000000  magneticMoment: [ Abs: 0.07320  Tot: -0.06672 ]
	SubspaceRotationAdjust: set factor to 0.734
ElecMinimize: Iter:  19  G: -351.623966096949516  |grad|_K:  4.843e-07  alpha:  2.757e-01  linmin:  4.637e-06  t[s]:   6351.85
	FillingsUpdate:  mu: -0.102195164  nElectrons: 224.000000  magneticMoment: [ Abs: 0.07015  Tot: -0.06336 ]
	SubspaceRotationAdjust: set factor to 0.696
ElecMinimize: Iter:  20  G: -351.623982022521091  |grad|_K:  4.310e-07  alpha:  3.232e-01  linmin: -4.024e-05  t[s]:   6471.16
	FillingsUpdate:  mu: -0.102599903  nElectrons: 224.000000  magneticMoment: [ Abs: 0.07175  Tot: -0.06520 ]
	SubspaceRotationAdjust: set factor to 0.721
ElecMinimize: Iter:  21  G: -351.623992881738559  |grad|_K:  2.629e-07  alpha:  2.769e-01  linmin:  1.030e-05  t[s]:   6586.00
	FillingsUpdate:  mu: -0.102760108  nElectrons: 224.000000  magneticMoment: [ Abs: 0.07213  Tot: -0.06561 ]
	SubspaceRotationAdjust: set factor to 0.742
ElecMinimize: Iter:  22  G: -351.623999181193199  |grad|_K:  2.472e-07  alpha:  4.345e-01  linmin:  1.493e-06  t[s]:   6695.13
	FillingsUpdate:  mu: -0.102427737  nElectrons: 224.000000  magneticMoment: [ Abs: 0.07000  Tot: -0.06319 ]
	SubspaceRotationAdjust: set factor to 0.635
ElecMinimize: Iter:  23  G: -351.624002691430462  |grad|_K:  2.012e-07  alpha:  2.751e-01  linmin:  1.048e-06  t[s]:   6807.41
	FillingsUpdate:  mu: -0.102543780  nElectrons: 224.000000  magneticMoment: [ Abs: 0.07000  Tot: -0.06317 ]
	SubspaceRotationAdjust: set factor to 0.664
ElecMinimize: Iter:  24  G: -351.624005734618379  |grad|_K:  1.449e-07  alpha:  3.579e-01  linmin:  1.274e-06  t[s]:   6920.36
	FillingsUpdate:  mu: -0.102646551  nElectrons: 224.000000  magneticMoment: [ Abs: 0.07000  Tot: -0.06320 ]
	SubspaceRotationAdjust: set factor to 0.644
ElecMinimize: Iter:  25  G: -351.624007225407126  |grad|_K:  1.154e-07  alpha:  3.382e-01  linmin: -4.968e-07  t[s]:   7034.33
	FillingsUpdate:  mu: -0.102502614  nElectrons: 224.000000  magneticMoment: [ Abs: 0.06914  Tot: -0.06227 ]
	SubspaceRotationAdjust: set factor to 0.609
ElecMinimize: Iter:  26  G: -351.624008264498855  |grad|_K:  9.886e-08  alpha:  3.710e-01  linmin: -9.031e-06  t[s]:   7148.52
	FillingsUpdate:  mu: -0.102528127  nElectrons: 224.000000  magneticMoment: [ Abs: 0.06923  Tot: -0.06241 ]
	SubspaceRotationAdjust: set factor to 0.552
ElecMinimize: Iter:  27  G: -351.624008932571655  |grad|_K:  7.759e-08  alpha:  3.248e-01  linmin:  3.051e-06  t[s]:   7262.65
	FillingsUpdate:  mu: -0.102569593  nElectrons: 224.000000  magneticMoment: [ Abs: 0.06898  Tot: -0.06219 ]
	SubspaceRotationAdjust: set factor to 0.67
ElecMinimize: Iter:  28  G: -351.624009425092424  |grad|_K:  5.417e-08  alpha:  3.895e-01  linmin:  1.109e-06  t[s]:   7376.32
	FillingsUpdate:  mu: -0.102548179  nElectrons: 224.000000  magneticMoment: [ Abs: 0.06852  Tot: -0.06172 ]
	SubspaceRotationAdjust: set factor to 0.573
ElecMinimize: Iter:  29  G: -351.624009641091504  |grad|_K:  4.829e-08  alpha:  3.506e-01  linmin: -1.809e-06  t[s]:   7494.87
	FillingsUpdate:  mu: -0.102581246  nElectrons: 224.000000  magneticMoment: [ Abs: 0.06852  Tot: -0.06178 ]
	SubspaceRotationAdjust: set factor to 0.602
ElecMinimize: Iter:  30  G: -351.624009812301040  |grad|_K:  3.352e-08  alpha:  3.491e-01  linmin:  5.160e-08  t[s]:   7608.61
	FillingsUpdate:  mu: -0.102567131  nElectrons: 224.000000  magneticMoment: [ Abs: 0.06840  Tot: -0.06170 ]
	SubspaceRotationAdjust: set factor to 0.609
ElecMinimize: Iter:  31  G: -351.624009919044511  |grad|_K:  2.762e-08  alpha:  4.522e-01  linmin:  3.554e-06  t[s]:   7722.23
	FillingsUpdate:  mu: -0.102554425  nElectrons: 224.000000  magneticMoment: [ Abs: 0.06821  Tot: -0.06154 ]
	SubspaceRotationAdjust: set factor to 0.548
ElecMinimize: Iter:  32  G: -351.624009977041737  |grad|_K:  2.251e-08  alpha:  3.621e-01  linmin: -1.976e-06  t[s]:   7840.94
	FillingsUpdate:  mu: -0.102579183  nElectrons: 224.000000  magneticMoment: [ Abs: 0.06822  Tot: -0.06160 ]
	SubspaceRotationAdjust: set factor to 0.548
ElecMinimize: Iter:  33  G: -351.624010018723141  |grad|_K:  1.731e-08  alpha:  3.917e-01  linmin: -1.102e-06  t[s]:   7954.24
ElecMinimize: Converged (|Delta G|<1.000000e-07 for 2 iters).
Setting wave functions to eigenvectors of Hamiltonian
Converging empty states (this may take a while): |deigs|: 7.760e-03
Vacuum energy after initial minimize, F = -351.624010018723141

Shifting auxilliary hamiltonian by -0.057621 to set nElectrons=224.000000

-------- Electronic minimization -----------
	Linear fluid (dielectric constant: 78.4, screening length: 8.12261 Bohr) occupying 0.723800 of unit cell:	Completed after 22 iterations at t[s]:   8509.55
	FillingsUpdate:  mu: -0.160200000  nElectrons: 224.000000  magneticMoment: [ Abs: 0.06759  Tot: -0.06093 ]
ElecMinimize: Iter:   0  G: -351.627857841896855  |grad|_K:  1.280e-05  alpha:  1.000e+00
	Linear fluid (dielectric constant: 78.4, screening length: 8.12261 Bohr) occupying 0.726794 of unit cell:	Completed after 18 iterations at t[s]:   8620.43
	Linear fluid (dielectric constant: 78.4, screening length: 8.12261 Bohr) occupying 0.725721 of unit cell:	Completed after 16 iterations at t[s]:   8666.58
	FillingsUpdate:  mu: -0.160200000  nElectrons: 224.016482  magneticMoment: [ Abs: 0.01866  Tot: -0.00023 ]
	SubspaceRotationAdjust: set factor to 0.687
ElecMinimize: Iter:   1  G: -351.633944985474216  |grad|_K:  3.588e-06  alpha:  5.508e-01  linmin: -1.396e-03  t[s]:   8716.85
	Linear fluid (dielectric constant: 78.4, screening length: 8.12261 Bohr) occupying 0.726241 of unit cell:	Completed after 9 iterations at t[s]:   8765.14
	Linear fluid (dielectric constant: 78.4, screening length: 8.12261 Bohr) occupying 0.726278 of unit cell:	Completed after 3 iterations at t[s]:   8803.20
	FillingsUpdate:  mu: -0.160200000  nElectrons: 224.014339  magneticMoment: [ Abs: 0.01368  Tot: -0.00013 ]
	SubspaceRotationAdjust: set factor to 0.592
ElecMinimize: Iter:   2  G: -351.635596382315498  |grad|_K:  3.364e-06  alpha:  5.886e-01  linmin:  6.878e-05  t[s]:   8852.26
	Linear fluid (dielectric constant: 78.4, screening length: 8.12261 Bohr) occupying 0.727398 of unit cell:	Completed after 14 iterations at t[s]:   8901.22
	Linear fluid (dielectric constant: 78.4, screening length: 8.12261 Bohr) occupying 0.727215 of unit cell:	Completed after 7 iterations at t[s]:   8939.38
	FillingsUpdate:  mu: -0.160200000  nElectrons: 224.006921  magneticMoment: [ Abs: 0.00790  Tot: -0.00001 ]
	SubspaceRotationAdjust: set factor to 0.533
ElecMinimize: Iter:   3  G: -351.636743808544679  |grad|_K:  2.099e-06  alpha:  4.933e-01  linmin: -7.680e-05  t[s]:   8987.51
	Linear fluid (dielectric constant: 78.4, screening length: 8.12261 Bohr) occupying 0.727818 of unit cell:	Completed after 10 iterations at t[s]:   9035.22
	Linear fluid (dielectric constant: 78.4, screening length: 8.12261 Bohr) occupying 0.727839 of unit cell:	Completed after 2 iterations at t[s]:   9072.50
	FillingsUpdate:  mu: -0.160200000  nElectrons: 224.008613  magneticMoment: [ Abs: 0.00534  Tot: +0.00002 ]
	SubspaceRotationAdjust: set factor to 0.475
ElecMinimize: Iter:   4  G: -351.637224942268801  |grad|_K:  8.176e-07  alpha:  5.107e-01  linmin:  4.126e-05  t[s]:   9121.57
	Linear fluid (dielectric constant: 78.4, screening length: 8.12261 Bohr) occupying 0.727923 of unit cell:	Completed after 5 iterations at t[s]:   9166.10
	Linear fluid (dielectric constant: 78.4, screening length: 8.12261 Bohr) occupying 0.727984 of unit cell:	Completed after 7 iterations at t[s]:   9206.51
	FillingsUpdate:  mu: -0.160200000  nElectrons: 224.015295  magneticMoment: [ Abs: 0.00379  Tot: +0.00004 ]
	SubspaceRotationAdjust: set factor to 0.501
ElecMinimize: Iter:   5  G: -351.637346226362581  |grad|_K:  5.688e-07  alpha:  8.734e-01  linmin:  5.705e-05  t[s]:   9255.69
	Linear fluid (dielectric constant: 78.4, screening length: 8.12261 Bohr) occupying 0.728010 of unit cell:	Completed after 8 iterations at t[s]:   9302.55
	Linear fluid (dielectric constant: 78.4, screening length: 8.12261 Bohr) occupying 0.728004 of unit cell:	Completed after 3 iterations at t[s]:   9340.54
	FillingsUpdate:  mu: -0.160200000  nElectrons: 224.021441  magneticMoment: [ Abs: 0.00287  Tot: +0.00005 ]
	SubspaceRotationAdjust: set factor to 0.507
ElecMinimize: Iter:   6  G: -351.637393649563023  |grad|_K:  4.685e-07  alpha:  7.012e-01  linmin:  2.354e-05  t[s]:   9389.85
	Linear fluid (dielectric constant: 78.4, screening length: 8.12261 Bohr) occupying 0.727991 of unit cell:	Completed after 7 iterations at t[s]:   9437.25
	Linear fluid (dielectric constant: 78.4, screening length: 8.12261 Bohr) occupying 0.727995 of unit cell:	Completed after 3 iterations at t[s]:   9476.03
	FillingsUpdate:  mu: -0.160200000  nElectrons: 224.022844  magneticMoment: [ Abs: 0.00209  Tot: +0.00004 ]
	SubspaceRotationAdjust: set factor to 0.388
ElecMinimize: Iter:   7  G: -351.637415574956549  |grad|_K:  2.778e-07  alpha:  4.760e-01  linmin:  3.509e-05  t[s]:   9526.44
	Linear fluid (dielectric constant: 78.4, screening length: 8.12261 Bohr) occupying 0.727983 of unit cell:	Completed after 3 iterations at t[s]:   9570.48
	Linear fluid (dielectric constant: 78.4, screening length: 8.12261 Bohr) occupying 0.727977 of unit cell:	Completed after 3 iterations at t[s]:   9608.51
	FillingsUpdate:  mu: -0.160200000  nElectrons: 224.022562  magneticMoment: [ Abs: 0.00129  Tot: +0.00003 ]
	SubspaceRotationAdjust: set factor to 0.308
ElecMinimize: Iter:   8  G: -351.637427088380321  |grad|_K:  1.685e-07  alpha:  7.111e-01  linmin: -3.893e-05  t[s]:   9658.85
	Linear fluid (dielectric constant: 78.4, screening length: 8.12261 Bohr) occupying 0.727967 of unit cell:	Completed after 3 iterations at t[s]:   9703.57
	Linear fluid (dielectric constant: 78.4, screening length: 8.12261 Bohr) occupying 0.727965 of unit cell:	Completed after 0 iterations at t[s]:   9739.28
	FillingsUpdate:  mu: -0.160200000  nElectrons: 224.020705  magneticMoment: [ Abs: 0.00083  Tot: +0.00001 ]
	SubspaceRotationAdjust: set factor to 0.312
ElecMinimize: Iter:   9  G: -351.637431849960251  |grad|_K:  1.144e-07  alpha:  7.918e-01  linmin: -1.762e-04  t[s]:   9790.18
	Linear fluid (dielectric constant: 78.4, screening length: 8.12261 Bohr) occupying 0.727959 of unit cell:	Completed after 3 iterations at t[s]:   9834.99
	Linear fluid (dielectric constant: 78.4, screening length: 8.12261 Bohr) occupying 0.727962 of unit cell:	Completed after 2 iterations at t[s]:   9872.90
	FillingsUpdate:  mu: -0.160200000  nElectrons: 224.020016  magneticMoment: [ Abs: 0.00063  Tot: +0.00001 ]
	SubspaceRotationAdjust: set factor to 0.322
ElecMinimize: Iter:  10  G: -351.637433155469012  |grad|_K:  6.899e-08  alpha:  4.842e-01  linmin: -1.332e-04  t[s]:   9923.49
	Linear fluid (dielectric constant: 78.4, screening length: 8.12261 Bohr) occupying 0.727960 of unit cell:	Completed after 1 iterations at t[s]:   9967.12
	Linear fluid (dielectric constant: 78.4, screening length: 8.12261 Bohr) occupying 0.727960 of unit cell:	Completed after 0 iterations at t[s]:  10002.98
	FillingsUpdate:  mu: -0.160200000  nElectrons: 224.019822  magneticMoment: [ Abs: 0.00046  Tot: +0.00001 ]
	SubspaceRotationAdjust: set factor to 0.346
ElecMinimize: Iter:  11  G: -351.637433865786818  |grad|_K:  4.359e-08  alpha:  6.856e-01  linmin: -5.562e-04  t[s]:  10053.80
	Linear fluid (dielectric constant: 78.4, screening length: 8.12261 Bohr) occupying 0.727961 of unit cell:	Completed after 2 iterations at t[s]:  10097.55
	Linear fluid (dielectric constant: 78.4, screening length: 8.12261 Bohr) occupying 0.727961 of unit cell:	Completed after 0 iterations at t[s]:  10133.06
	FillingsUpdate:  mu: -0.160200000  nElectrons: 224.019879  magneticMoment: [ Abs: 0.00037  Tot: +0.00001 ]
	SubspaceRotationAdjust: set factor to 0.332
ElecMinimize: Iter:  12  G: -351.637434093296633  |grad|_K:  3.394e-08  alpha:  5.607e-01  linmin: -3.711e-04  t[s]:  10183.53
	Linear fluid (dielectric constant: 78.4, screening length: 8.12261 Bohr) occupying 0.727962 of unit cell:	Completed after 1 iterations at t[s]:  10227.07
	Linear fluid (dielectric constant: 78.4, screening length: 8.12261 Bohr) occupying 0.727962 of unit cell:	Completed after 0 iterations at t[s]:  10262.50
	FillingsUpdate:  mu: -0.160200000  nElectrons: 224.019902  magneticMoment: [ Abs: 0.00027  Tot: +0.00000 ]
	SubspaceRotationAdjust: set factor to 0.355
ElecMinimize: Iter:  13  G: -351.637434238757123  |grad|_K:  2.356e-08  alpha:  5.620e-01  linmin: -1.693e-04  t[s]:  10313.11
	Linear fluid (dielectric constant: 78.4, screening length: 8.12261 Bohr) occupying 0.727964 of unit cell:	Completed after 0 iterations at t[s]:  10356.11
	Linear fluid (dielectric constant: 78.4, screening length: 8.12261 Bohr) occupying 0.727964 of unit cell:	Completed after 0 iterations at t[s]:  10391.83
	FillingsUpdate:  mu: -0.160200000  nElectrons: 224.019978  magneticMoment: [ Abs: 0.00020  Tot: +0.00000 ]
	SubspaceRotationAdjust: set factor to 0.374
ElecMinimize: Iter:  14  G: -351.637434301275562  |grad|_K:  1.570e-08  alpha:  5.155e-01  linmin: -2.181e-04  t[s]:  10442.89
	Linear fluid (dielectric constant: 78.4, screening length: 8.12261 Bohr) occupying 0.727965 of unit cell:	Completed after 0 iterations at t[s]:  10485.07
	Linear fluid (dielectric constant: 78.4, screening length: 8.12261 Bohr) occupying 0.727966 of unit cell:	Completed after 0 iterations at t[s]:  10520.63
	FillingsUpdate:  mu: -0.160200000  nElectrons: 224.020063  magneticMoment: [ Abs: 0.00014  Tot: +0.00000 ]
	SubspaceRotationAdjust: set factor to 0.395
ElecMinimize: Iter:  15  G: -351.637434336012973  |grad|_K:  1.016e-08  alpha:  6.116e-01  linmin: -5.806e-08  t[s]:  10571.11
ElecMinimize: Converged (|Delta G|<1.000000e-07 for 2 iters).
Setting wave functions to eigenvectors of Hamiltonian
Converging empty states (this may take a while): |deigs|: 1.003e-03
Single-point solvation energy estimate, DeltaG = -0.013424317289832

Computing DFT-D3 correction:
# coordination-number C 3.302 3.323 3.335 3.334 3.314 3.290 3.327 3.591 3.330 3.314 3.302 3.328 3.304 3.301 3.324 3.601 3.265 3.301 3.319 3.336 3.330 3.304 3.304 3.329 3.336 3.320 3.301 3.266 3.589 3.324 3.301 3.304 3.327 3.302 3.313 3.329 3.599 3.328 3.289 3.313 3.333 3.336 3.324 3.302 2.997
# coordination-number N 3.178 3.179 3.178 3.179
# coordination-number Ti 7.473
# coordination-number O 2.002 1.035
# diagonal-C6 C 24.26 24.05 23.91 23.93 24.15 24.38 24.01 20.39 23.97 24.15 24.26 24.00 24.24 24.28 24.04 20.26 24.59 24.28 24.09 23.91 23.97 24.24 24.25 23.99 23.91 24.08 24.27 24.58 20.41 24.04 24.27 24.24 24.01 24.27 24.15 23.98 20.28 24.00 24.38 24.15 23.94 23.91 24.04 24.27 25.68
# diagonal-C6 N 15.60 15.60 15.60 15.60
# diagonal-C6 Ti 321.59
# diagonal-C6 O 10.41 12.78
EvdW_6 =   -0.039682
EvdW_8 =   -0.031900
Completed 1 of 10 configurations.

Computing DFT-D3 correction:
# coordination-number C 3.302 3.323 3.335 3.334 3.314 3.290 3.327 3.591 3.330 3.314 3.302 3.328 3.304 3.301 3.324 3.601 3.265 3.301 3.319 3.336 3.330 3.304 3.304 3.329 3.336 3.320 3.301 3.266 3.589 3.324 3.301 3.304 3.327 3.302 3.313 3.329 3.599 3.328 3.289 3.313 3.333 3.336 3.324 3.302 2.997
# coordination-number N 3.178 3.179 3.178 3.179
# coordination-number Ti 7.473
# coordination-number O 2.002 1.035
# diagonal-C6 C 24.26 24.05 23.91 23.93 24.15 24.38 24.01 20.39 23.97 24.15 24.26 24.00 24.24 24.28 24.04 20.26 24.59 24.28 24.09 23.91 23.97 24.24 24.25 23.99 23.91 24.08 24.27 24.58 20.41 24.04 24.27 24.24 24.01 24.27 24.15 23.98 20.28 24.00 24.38 24.15 23.94 23.91 24.04 24.27 25.68
# diagonal-C6 N 15.60 15.60 15.60 15.60
# diagonal-C6 Ti 321.59
# diagonal-C6 O 10.41 12.78
EvdW_6 =   -0.039682
EvdW_8 =   -0.031899
Shifting auxilliary hamiltonian by 0.000006 to set nElectrons=224.020063

-------- Electronic minimization -----------
	Linear fluid (dielectric constant: 78.4, screening length: 8.12261 Bohr) occupying 0.727967 of unit cell:	Completed after 5 iterations at t[s]:  11139.10
	FillingsUpdate:  mu: -0.160200000  nElectrons: 224.020063  magneticMoment: [ Abs: 0.00006  Tot: +0.00000 ]
ElecMinimize: Iter:   0  G: -351.637406896988409  |grad|_K:  3.336e-07  alpha:  1.000e+00
	Linear fluid (dielectric constant: 78.4, screening length: 8.12261 Bohr) occupying 0.727966 of unit cell:	Completed after 3 iterations at t[s]:  11241.11
	Linear fluid (dielectric constant: 78.4, screening length: 8.12261 Bohr) occupying 0.727966 of unit cell:	Completed after 2 iterations at t[s]:  11278.80
	FillingsUpdate:  mu: -0.160200000  nElectrons: 224.020226  magneticMoment: [ Abs: 0.00005  Tot: +0.00000 ]
	SubspaceRotationAdjust: set factor to 0.554
ElecMinimize: Iter:   1  G: -351.637425477130307  |grad|_K:  1.402e-07  alpha:  7.936e-01  linmin:  7.681e-05  t[s]:  11329.77
	Linear fluid (dielectric constant: 78.4, screening length: 8.12261 Bohr) occupying 0.727966 of unit cell:	Completed after 2 iterations at t[s]:  11373.47
	Linear fluid (dielectric constant: 78.4, screening length: 8.12261 Bohr) occupying 0.727966 of unit cell:	Completed after 1 iterations at t[s]:  11410.44
	FillingsUpdate:  mu: -0.160200000  nElectrons: 224.020057  magneticMoment: [ Abs: 0.00003  Tot: +0.00000 ]
	SubspaceRotationAdjust: set factor to 0.691
ElecMinimize: Iter:   2  G: -351.637429508874845  |grad|_K:  8.936e-08  alpha:  9.825e-01  linmin: -6.068e-05  t[s]:  11461.16
	Linear fluid (dielectric constant: 78.4, screening length: 8.12261 Bohr) occupying 0.727965 of unit cell:	Completed after 2 iterations at t[s]:  11505.31
	Linear fluid (dielectric constant: 78.4, screening length: 8.12261 Bohr) occupying 0.727966 of unit cell:	Completed after 3 iterations at t[s]:  11543.80
	FillingsUpdate:  mu: -0.160200000  nElectrons: 224.020226  magneticMoment: [ Abs: 0.00002  Tot: +0.00000 ]
	SubspaceRotationAdjust: set factor to 0.639
ElecMinimize: Iter:   3  G: -351.637430428213349  |grad|_K:  6.196e-08  alpha:  5.328e-01  linmin:  2.748e-05  t[s]:  11594.44
	Linear fluid (dielectric constant: 78.4, screening length: 8.12261 Bohr) occupying 0.727966 of unit cell:	Completed after 2 iterations at t[s]:  11638.58
	Linear fluid (dielectric constant: 78.4, screening length: 8.12261 Bohr) occupying 0.727966 of unit cell:	Completed after 0 iterations at t[s]:  11674.22
	FillingsUpdate:  mu: -0.160200000  nElectrons: 224.020138  magneticMoment: [ Abs: 0.00002  Tot: +0.00000 ]
	SubspaceRotationAdjust: set factor to 0.397
ElecMinimize: Iter:   4  G: -351.637430731836957  |grad|_K:  4.357e-08  alpha:  3.433e-01  linmin:  5.274e-04  t[s]:  11724.62
	Linear fluid (dielectric constant: 78.4, screening length: 8.12261 Bohr) occupying 0.727966 of unit cell:	Completed after 2 iterations at t[s]:  11768.43
	Linear fluid (dielectric constant: 78.4, screening length: 8.12261 Bohr) occupying 0.727966 of unit cell:	Completed after 0 iterations at t[s]:  11804.33
	FillingsUpdate:  mu: -0.160200000  nElectrons: 224.020171  magneticMoment: [ Abs: 0.00002  Tot: +0.00000 ]
	SubspaceRotationAdjust: set factor to 0.209
ElecMinimize: Iter:   5  G: -351.637430754037723  |grad|_K:  2.480e-08  alpha:  1.710e-01  linmin:  1.498e-04  t[s]:  11854.95
	Linear fluid (dielectric constant: 78.4, screening length: 8.12261 Bohr) occupying 0.727966 of unit cell:	Completed after 0 iterations at t[s]:  11896.92
ElecMinimize: 	Predicted alpha/alphaT>3.000000, increasing alphaT to 5.131478e-01.
	Linear fluid (dielectric constant: 78.4, screening length: 8.12261 Bohr) occupying 0.727966 of unit cell:	Completed after 1 iterations at t[s]:  11933.68
	Linear fluid (dielectric constant: 78.4, screening length: 8.12261 Bohr) occupying 0.727966 of unit cell:	Completed after 0 iterations at t[s]:  11970.08
	FillingsUpdate:  mu: -0.160200000  nElectrons: 224.020143  magneticMoment: [ Abs: 0.00001  Tot: +0.00000 ]
	SubspaceRotationAdjust: set factor to 0.181
ElecMinimize: Iter:   6  G: -351.637430787488256  |grad|_K:  1.159e-08  alpha:  3.563e-01  linmin: -4.716e-04  t[s]:  12020.74
ElecMinimize: Converged (|Delta G|<1.000000e-07 for 2 iters).
Setting wave functions to eigenvectors of Hamiltonian
Converging empty states (this may take a while): |deigs|: 9.155e-08

Computing DFT-D3 correction:
# coordination-number C 3.302 3.323 3.335 3.334 3.314 3.290 3.327 3.591 3.330 3.314 3.302 3.328 3.304 3.301 3.324 3.601 3.265 3.301 3.319 3.336 3.330 3.304 3.304 3.329 3.336 3.320 3.301 3.266 3.589 3.324 3.301 3.304 3.327 3.302 3.313 3.329 3.599 3.328 3.289 3.313 3.333 3.336 3.324 3.302 2.997
# coordination-number N 3.178 3.179 3.178 3.179
# coordination-number Ti 7.473
# coordination-number O 2.002 1.035
# diagonal-C6 C 24.26 24.05 23.91 23.93 24.15 24.38 24.01 20.39 23.97 24.15 24.26 24.00 24.24 24.28 24.04 20.26 24.59 24.28 24.09 23.91 23.97 24.24 24.25 23.99 23.91 24.08 24.27 24.58 20.41 24.04 24.27 24.24 24.01 24.27 24.15 23.98 20.28 24.00 24.38 24.15 23.94 23.91 24.04 24.27 25.68
# diagonal-C6 N 15.60 15.60 15.60 15.60
# diagonal-C6 Ti 321.59
# diagonal-C6 O 10.41 12.78
EvdW_6 =   -0.039682
EvdW_8 =   -0.031899
Completed 2 of 10 configurations.

Computing DFT-D3 correction:
# coordination-number C 3.302 3.323 3.335 3.334 3.314 3.290 3.327 3.591 3.330 3.314 3.302 3.328 3.304 3.301 3.324 3.601 3.265 3.301 3.319 3.336 3.330 3.304 3.304 3.329 3.336 3.320 3.301 3.266 3.589 3.324 3.301 3.304 3.327 3.302 3.313 3.329 3.599 3.328 3.289 3.313 3.333 3.336 3.324 3.302 2.997
# coordination-number N 3.178 3.179 3.178 3.179
# coordination-number Ti 7.473
# coordination-number O 2.002 1.035
# diagonal-C6 C 24.26 24.05 23.91 23.93 24.15 24.38 24.01 20.39 23.97 24.15 24.26 24.00 24.24 24.28 24.04 20.26 24.59 24.28 24.09 23.91 23.97 24.24 24.25 23.99 23.91 24.08 24.27 24.58 20.41 24.04 24.27 24.24 24.01 24.27 24.15 23.98 20.28 24.00 24.38 24.15 23.94 23.91 24.04 24.27 25.68
# diagonal-C6 N 15.60 15.60 15.60 15.60
# diagonal-C6 Ti 321.59
# diagonal-C6 O 10.41 12.78
EvdW_6 =   -0.039683
EvdW_8 =   -0.031899
Shifting auxilliary hamiltonian by 0.000005 to set nElectrons=224.020143

-------- Electronic minimization -----------
	Linear fluid (dielectric constant: 78.4, screening length: 8.12261 Bohr) occupying 0.727989 of unit cell:	Completed after 8 iterations at t[s]:  12218.14
	FillingsUpdate:  mu: -0.160200000  nElectrons: 224.020143  magneticMoment: [ Abs: 0.00001  Tot: +0.00000 ]
ElecMinimize: Iter:   0  G: -351.637350327352237  |grad|_K:  5.712e-07  alpha:  1.000e+00
	Linear fluid (dielectric constant: 78.4, screening length: 8.12261 Bohr) occupying 0.727993 of unit cell:	Completed after 5 iterations at t[s]:  12321.12
	Linear fluid (dielectric constant: 78.4, screening length: 8.12261 Bohr) occupying 0.727991 of unit cell:	Completed after 3 iterations at t[s]:  12359.53
	FillingsUpdate:  mu: -0.160200000  nElectrons: 224.020086  magneticMoment: [ Abs: 0.00001  Tot: +0.00000 ]
	SubspaceRotationAdjust: set factor to 0.204
ElecMinimize: Iter:   1  G: -351.637397281694803  |grad|_K:  2.501e-07  alpha:  6.846e-01  linmin:  3.797e-05  t[s]:  12410.34
	Linear fluid (dielectric constant: 78.4, screening length: 8.12261 Bohr) occupying 0.727997 of unit cell:	Completed after 2 iterations at t[s]:  12454.27
	Linear fluid (dielectric constant: 78.4, screening length: 8.12261 Bohr) occupying 0.727998 of unit cell:	Completed after 1 iterations at t[s]:  12491.27
	FillingsUpdate:  mu: -0.160200000  nElectrons: 224.020139  magneticMoment: [ Abs: 0.00000  Tot: +0.00000 ]
	SubspaceRotationAdjust: set factor to 0.247
ElecMinimize: Iter:   2  G: -351.637407393040462  |grad|_K:  1.687e-07  alpha:  7.699e-01  linmin: -2.531e-04  t[s]:  12541.80
	Linear fluid (dielectric constant: 78.4, screening length: 8.12261 Bohr) occupying 0.728000 of unit cell:	Completed after 2 iterations at t[s]:  12585.66
	Linear fluid (dielectric constant: 78.4, screening length: 8.12261 Bohr) occupying 0.728000 of unit cell:	Completed after 0 iterations at t[s]:  12621.41
	FillingsUpdate:  mu: -0.160200000  nElectrons: 224.020125  magneticMoment: [ Abs: 0.00000  Tot: +0.00000 ]
	SubspaceRotationAdjust: set factor to 0.325
ElecMinimize: Iter:   3  G: -351.637412585656591  |grad|_K:  1.158e-07  alpha:  8.579e-01  linmin: -1.957e-04  t[s]:  12672.19
	Linear fluid (dielectric constant: 78.4, screening length: 8.12261 Bohr) occupying 0.728003 of unit cell:	Completed after 2 iterations at t[s]:  12716.53
	Linear fluid (dielectric constant: 78.4, screening length: 8.12261 Bohr) occupying 0.728003 of unit cell:	Completed after 1 iterations at t[s]:  12753.40
	FillingsUpdate:  mu: -0.160200000  nElectrons: 224.020217  magneticMoment: [ Abs: 0.00000  Tot: +0.00000 ]
	SubspaceRotationAdjust: set factor to 0.399
ElecMinimize: Iter:   4  G: -351.637414476022172  |grad|_K:  9.777e-08  alpha:  6.561e-01  linmin:  2.376e-04  t[s]:  12804.01
	Linear fluid (dielectric constant: 78.4, screening length: 8.12261 Bohr) occupying 0.728008 of unit cell:	Completed after 2 iterations at t[s]:  12847.79
	Linear fluid (dielectric constant: 78.4, screening length: 8.12261 Bohr) occupying 0.728008 of unit cell:	Completed after 0 iterations at t[s]:  12883.73
	FillingsUpdate:  mu: -0.160200000  nElectrons: 224.020218  magneticMoment: [ Abs: 0.00000  Tot: +0.00000 ]
	SubspaceRotationAdjust: set factor to 0.484
ElecMinimize: Iter:   5  G: -351.637415780194829  |grad|_K:  6.029e-08  alpha:  6.724e-01  linmin: -2.145e-04  t[s]:  12934.35
	Linear fluid (dielectric constant: 78.4, screening length: 8.12261 Bohr) occupying 0.728010 of unit cell:	Completed after 1 iterations at t[s]:  12977.51
	Linear fluid (dielectric constant: 78.4, screening length: 8.12261 Bohr) occupying 0.728010 of unit cell:	Completed after 0 iterations at t[s]:  13013.38
	FillingsUpdate:  mu: -0.160200000  nElectrons: 224.020305  magneticMoment: [ Abs: 0.00000  Tot: +0.00000 ]
	SubspaceRotationAdjust: set factor to 0.543
ElecMinimize: Iter:   6  G: -351.637416400067593  |grad|_K:  3.651e-08  alpha:  7.764e-01  linmin: -2.417e-04  t[s]:  13064.40
	Linear fluid (dielectric constant: 78.4, screening length: 8.12261 Bohr) occupying 0.728011 of unit cell:	Completed after 2 iterations at t[s]:  13108.54
	Linear fluid (dielectric constant: 78.4, screening length: 8.12261 Bohr) occupying 0.728011 of unit cell:	Completed after 0 iterations at t[s]:  13144.18
	FillingsUpdate:  mu: -0.160200000  nElectrons: 224.020382  magneticMoment: [ Abs: 0.00000  Tot: +0.00000 ]
	SubspaceRotationAdjust: set factor to 0.477
ElecMinimize: Iter:   7  G: -351.637416537219679  |grad|_K:  3.294e-08  alpha:  4.641e-01  linmin:  8.987e-04  t[s]:  13195.22
	Linear fluid (dielectric constant: 78.4, screening length: 8.12261 Bohr) occupying 0.728012 of unit cell:	Completed after 2 iterations at t[s]:  13239.47
	Linear fluid (dielectric constant: 78.4, screening length: 8.12261 Bohr) occupying 0.728011 of unit cell:	Completed after 0 iterations at t[s]:  13275.01
	FillingsUpdate:  mu: -0.160200000  nElectrons: 224.020376  magneticMoment: [ Abs: 0.00000  Tot: +0.00000 ]
	SubspaceRotationAdjust: set factor to 0.31
ElecMinimize: Iter:   8  G: -351.637416576952148  |grad|_K:  2.131e-08  alpha:  2.510e-01  linmin:  9.802e-04  t[s]:  13324.98
	Linear fluid (dielectric constant: 78.4, screening length: 8.12261 Bohr) occupying 0.728011 of unit cell:	Completed after 0 iterations at t[s]:  13367.14
	Linear fluid (dielectric constant: 78.4, screening length: 8.12261 Bohr) occupying 0.728012 of unit cell:	Completed after 1 iterations at t[s]:  13404.13
	FillingsUpdate:  mu: -0.160200000  nElectrons: 224.020468  magneticMoment: [ Abs: 0.00000  Tot: +0.00000 ]
	SubspaceRotationAdjust: set factor to 0.318
ElecMinimize: Iter:   9  G: -351.637416598835216  |grad|_K:  1.451e-08  alpha:  6.436e-01  linmin:  3.041e-03  t[s]:  13454.68
ElecMinimize: Converged (|Delta G|<1.000000e-07 for 2 iters).
Setting wave functions to eigenvectors of Hamiltonian
Converging empty states (this may take a while): |deigs|: 1.032e-08

Computing DFT-D3 correction:
# coordination-number C 3.302 3.323 3.335 3.334 3.314 3.290 3.327 3.591 3.330 3.314 3.302 3.328 3.304 3.301 3.324 3.601 3.265 3.301 3.319 3.336 3.330 3.304 3.304 3.329 3.336 3.320 3.301 3.266 3.589 3.324 3.301 3.304 3.327 3.302 3.313 3.329 3.599 3.328 3.289 3.313 3.333 3.336 3.324 3.302 2.997
# coordination-number N 3.178 3.179 3.178 3.179
# coordination-number Ti 7.473
# coordination-number O 2.002 1.035
# diagonal-C6 C 24.26 24.05 23.91 23.93 24.15 24.38 24.01 20.39 23.97 24.15 24.26 24.00 24.24 24.28 24.04 20.26 24.59 24.28 24.09 23.91 23.97 24.24 24.25 23.99 23.91 24.08 24.27 24.58 20.41 24.04 24.27 24.24 24.01 24.27 24.15 23.98 20.28 24.00 24.38 24.15 23.94 23.91 24.04 24.27 25.68
# diagonal-C6 N 15.60 15.60 15.60 15.60
# diagonal-C6 Ti 321.59
# diagonal-C6 O 10.41 12.78
EvdW_6 =   -0.039683
EvdW_8 =   -0.031899
Completed 3 of 10 configurations.

Computing DFT-D3 correction:
# coordination-number C 3.302 3.323 3.335 3.334 3.314 3.290 3.327 3.591 3.330 3.314 3.302 3.328 3.304 3.301 3.324 3.601 3.265 3.301 3.319 3.336 3.330 3.304 3.304 3.329 3.336 3.320 3.301 3.266 3.589 3.324 3.301 3.304 3.327 3.302 3.313 3.329 3.599 3.328 3.289 3.313 3.333 3.336 3.324 3.302 2.996
# coordination-number N 3.178 3.179 3.178 3.179
# coordination-number Ti 7.473
# coordination-number O 2.002 1.035
# diagonal-C6 C 24.26 24.05 23.91 23.93 24.15 24.38 24.01 20.39 23.97 24.15 24.26 24.00 24.24 24.28 24.04 20.26 24.59 24.28 24.09 23.91 23.97 24.24 24.25 23.99 23.91 24.08 24.27 24.58 20.41 24.04 24.27 24.24 24.01 24.27 24.15 23.98 20.28 24.00 24.38 24.15 23.94 23.91 24.04 24.27 25.68
# diagonal-C6 N 15.60 15.60 15.60 15.60
# diagonal-C6 Ti 321.59
# diagonal-C6 O 10.41 12.78
EvdW_6 =   -0.039683
EvdW_8 =   -0.031893
Shifting auxilliary hamiltonian by -0.000005 to set nElectrons=224.020468

-------- Electronic minimization -----------
	Linear fluid (dielectric constant: 78.4, screening length: 8.12261 Bohr) occupying 0.727931 of unit cell:	Completed after 7 iterations at t[s]:  13632.99
	FillingsUpdate:  mu: -0.160200000  nElectrons: 224.020468  magneticMoment: [ Abs: 0.00000  Tot: +0.00000 ]
ElecMinimize: Iter:   0  G: -351.637298382863378  |grad|_K:  7.573e-07  alpha:  1.000e+00
	Linear fluid (dielectric constant: 78.4, screening length: 8.12261 Bohr) occupying 0.727930 of unit cell:	Completed after 6 iterations at t[s]:  13736.43
	Linear fluid (dielectric constant: 78.4, screening length: 8.12261 Bohr) occupying 0.727931 of unit cell:	Completed after 3 iterations at t[s]:  13775.11
	FillingsUpdate:  mu: -0.160200000  nElectrons: 224.019960  magneticMoment: [ Abs: 0.00000  Tot: +0.00000 ]
	SubspaceRotationAdjust: set factor to 0.332
ElecMinimize: Iter:   1  G: -351.637371772211964  |grad|_K:  3.402e-07  alpha:  6.086e-01  linmin:  2.098e-05  t[s]:  13825.81
	Linear fluid (dielectric constant: 78.4, screening length: 8.12261 Bohr) occupying 0.727911 of unit cell:	Completed after 2 iterations at t[s]:  13870.00
	Linear fluid (dielectric constant: 78.4, screening length: 8.12261 Bohr) occupying 0.727908 of unit cell:	Completed after 2 iterations at t[s]:  13907.86
	FillingsUpdate:  mu: -0.160200000  nElectrons: 224.019760  magneticMoment: [ Abs: 0.00000  Tot: +0.00000 ]
	SubspaceRotationAdjust: set factor to 0.399
ElecMinimize: Iter:   2  G: -351.637389333708143  |grad|_K:  2.067e-07  alpha:  7.234e-01  linmin: -2.639e-05  t[s]:  13958.83
	Linear fluid (dielectric constant: 78.4, screening length: 8.12261 Bohr) occupying 0.727894 of unit cell:	Completed after 3 iterations at t[s]:  14003.37
	Linear fluid (dielectric constant: 78.4, screening length: 8.12261 Bohr) occupying 0.727891 of unit cell:	Completed after 0 iterations at t[s]:  14039.29
	FillingsUpdate:  mu: -0.160200000  nElectrons: 224.019328  magneticMoment: [ Abs: 0.00000  Tot: +0.00000 ]
	SubspaceRotationAdjust: set factor to 0.501
ElecMinimize: Iter:   3  G: -351.637397570034693  |grad|_K:  1.143e-07  alpha:  9.097e-01  linmin: -2.623e-04  t[s]:  14089.93
	Linear fluid (dielectric constant: 78.4, screening length: 8.12261 Bohr) occupying 0.727878 of unit cell:	Completed after 1 iterations at t[s]:  14133.36
	Linear fluid (dielectric constant: 78.4, screening length: 8.12261 Bohr) occupying 0.727882 of unit cell:	Completed after 1 iterations at t[s]:  14170.50
	FillingsUpdate:  mu: -0.160200000  nElectrons: 224.019118  magneticMoment: [ Abs: 0.00000  Tot: +0.00000 ]
	SubspaceRotationAdjust: set factor to 0.556
ElecMinimize: Iter:   4  G: -351.637399349149405  |grad|_K:  9.054e-08  alpha:  6.317e-01  linmin:  1.364e-04  t[s]:  14221.50
	Linear fluid (dielectric constant: 78.4, screening length: 8.12261 Bohr) occupying 0.727871 of unit cell:	Completed after 3 iterations at t[s]:  14266.01
	Linear fluid (dielectric constant: 78.4, screening length: 8.12261 Bohr) occupying 0.727875 of unit cell:	Completed after 0 iterations at t[s]:  14301.48
	FillingsUpdate:  mu: -0.160200000  nElectrons: 224.018840  magneticMoment: [ Abs: 0.00000  Tot: +0.00000 ]
	SubspaceRotationAdjust: set factor to 0.455
ElecMinimize: Iter:   5  G: -351.637400083060015  |grad|_K:  6.523e-08  alpha:  4.276e-01  linmin:  5.782e-04  t[s]:  14352.72
	Linear fluid (dielectric constant: 78.4, screening length: 8.12261 Bohr) occupying 0.727871 of unit cell:	Completed after 2 iterations at t[s]:  14396.67
	Linear fluid (dielectric constant: 78.4, screening length: 8.12261 Bohr) occupying 0.727872 of unit cell:	Completed after 0 iterations at t[s]:  14432.33
	FillingsUpdate:  mu: -0.160200000  nElectrons: 224.018822  magneticMoment: [ Abs: 0.00000  Tot: +0.00000 ]
	SubspaceRotationAdjust: set factor to 0.293
ElecMinimize: Iter:   6  G: -351.637400280343797  |grad|_K:  4.592e-08  alpha:  2.868e-01  linmin:  4.629e-05  t[s]:  14483.55
	Linear fluid (dielectric constant: 78.4, screening length: 8.12261 Bohr) occupying 0.727871 of unit cell:	Completed after 1 iterations at t[s]:  14526.81
	Linear fluid (dielectric constant: 78.4, screening length: 8.12261 Bohr) occupying 0.727870 of unit cell:	Completed after 0 iterations at t[s]:  14561.57
	FillingsUpdate:  mu: -0.160200000  nElectrons: 224.018710  magneticMoment: [ Abs: 0.00000  Tot: +0.00000 ]
	SubspaceRotationAdjust: set factor to 0.425
ElecMinimize: Iter:   7  G: -351.637400438722011  |grad|_K:  2.000e-08  alpha:  3.363e-01  linmin: -2.474e-03  t[s]:  14612.48
	Linear fluid (dielectric constant: 78.4, screening length: 8.12261 Bohr) occupying 0.727870 of unit cell:	Completed after 0 iterations at t[s]:  14654.38
	Linear fluid (dielectric constant: 78.4, screening length: 8.12261 Bohr) occupying 0.727869 of unit cell:	Completed after 2 iterations at t[s]:  14692.48
	FillingsUpdate:  mu: -0.160200000  nElectrons: 224.018606  magneticMoment: [ Abs: 0.00000  Tot: +0.00000 ]
	SubspaceRotationAdjust: set factor to 0.389
ElecMinimize: Iter:   8  G: -351.637400466895372  |grad|_K:  2.479e-08  alpha:  7.578e-01  linmin:  2.778e-03  t[s]:  14743.01
	Linear fluid (dielectric constant: 78.4, screening length: 8.12261 Bohr) occupying 0.727867 of unit cell:	Completed after 0 iterations at t[s]:  14785.27
	Linear fluid (dielectric constant: 78.4, screening length: 8.12261 Bohr) occupying 0.727869 of unit cell:	Completed after 0 iterations at t[s]:  14821.41
	FillingsUpdate:  mu: -0.160200000  nElectrons: 224.018565  magneticMoment: [ Abs: 0.00000  Tot: +0.00000 ]
	SubspaceRotationAdjust: set factor to 0.531
ElecMinimize: Iter:   9  G: -351.637400485710543  |grad|_K:  2.331e-08  alpha:  2.550e-01  linmin:  8.837e-07  t[s]:  14872.88
ElecMinimize: Converged (|Delta G|<1.000000e-07 for 2 iters).
Setting wave functions to eigenvectors of Hamiltonian
Converging empty states (this may take a while): |deigs|: 2.402e-08

Computing DFT-D3 correction:
# coordination-number C 3.302 3.323 3.335 3.334 3.314 3.290 3.327 3.591 3.330 3.314 3.302 3.328 3.304 3.301 3.324 3.601 3.265 3.301 3.319 3.336 3.330 3.304 3.304 3.329 3.336 3.320 3.301 3.266 3.589 3.324 3.301 3.304 3.327 3.302 3.313 3.329 3.599 3.328 3.289 3.313 3.333 3.336 3.324 3.302 2.996
# coordination-number N 3.178 3.179 3.178 3.179
# coordination-number Ti 7.473
# coordination-number O 2.002 1.035
[...]
disp C   0.000000000000000   0.000000000000000   0.000000000000000
disp C   0.000000000000000   0.000000000000000   0.000000000000000
disp C   0.000000000000000   0.000000000000000   0.000000000000000
disp C   0.000000000000000   0.000000000000000   0.000000000000000
disp C   0.000000000000000   0.000000000000000   0.000000000000000
disp C   0.000000000000000   0.000000000000000   0.000000000000000
disp C   0.000000000000000   0.000000000000000   0.000000000000000
disp C   0.000000000000000   0.000000000000000   0.000000000000000
disp C   0.000000000000000   0.000000000000000   0.000000000000000
disp C   0.000000000000000   0.000000000000000   0.000000000000000
disp C   0.000000000000000   0.000000000000000   0.000000000000000
disp C   0.000000000000000   0.000000000000000   0.000000000000000
disp C   0.000000000000000   0.000000000000000   0.000000000000000
disp C   0.000000000000000   0.000000000000000   0.000000000000000
disp C   0.000000000000000   0.000000000000000   0.000000000000000
disp C   0.006251917683171  -0.000888996936429  -0.000308502369354
disp N   0.000000000000000   0.000000000000000   0.000000000000000
disp N   0.000000000000000   0.000000000000000   0.000000000000000
disp N   0.000000000000000   0.000000000000000   0.000000000000000
disp N   0.000000000000000   0.000000000000000   0.000000000000000
disp Ti   0.000000000000000   0.000000000000000   0.000000000000000
disp O  -0.000492824747810  -0.000691784663829  -0.000747068040006
disp O  -0.001701709136795   0.000274881140536   0.000170371286805

Real mode 4:
Frequency: 0.001786 Eh [ 392 cm^-1 ]
Degeneracy: 1 of 1
IR intensity: 0.3236 e^2/amu [ 315.5 km/mol ]
Displacements:
disp C   0.000000000000000   0.000000000000000   0.000000000000000
disp C   0.000000000000000   0.000000000000000   0.000000000000000
disp C   0.000000000000000   0.000000000000000   0.000000000000000
disp C   0.000000000000000   0.000000000000000   0.000000000000000
disp C   0.000000000000000   0.000000000000000   0.000000000000000
disp C   0.000000000000000   0.000000000000000   0.000000000000000
disp C   0.000000000000000   0.000000000000000   0.000000000000000
disp C   0.000000000000000   0.000000000000000   0.000000000000000
disp C   0.000000000000000   0.000000000000000   0.000000000000000
disp C   0.000000000000000   0.000000000000000   0.000000000000000
disp C   0.000000000000000   0.000000000000000   0.000000000000000
disp C   0.000000000000000   0.000000000000000   0.000000000000000
disp C   0.000000000000000   0.000000000000000   0.000000000000000
disp C   0.000000000000000   0.000000000000000   0.000000000000000
disp C   0.000000000000000   0.000000000000000   0.000000000000000
disp C   0.000000000000000   0.000000000000000   0.000000000000000
disp C   0.000000000000000   0.000000000000000   0.000000000000000
disp C   0.000000000000000   0.000000000000000   0.000000000000000
disp C   0.000000000000000   0.000000000000000   0.000000000000000
disp C   0.000000000000000   0.000000000000000   0.000000000000000
disp C   0.000000000000000   0.000000000000000   0.000000000000000
disp C   0.000000000000000   0.000000000000000   0.000000000000000
disp C   0.000000000000000   0.000000000000000   0.000000000000000
disp C   0.000000000000000   0.000000000000000   0.000000000000000
disp C   0.000000000000000   0.000000000000000   0.000000000000000
disp C   0.000000000000000   0.000000000000000   0.000000000000000
disp C   0.000000000000000   0.000000000000000   0.000000000000000
disp C   0.000000000000000   0.000000000000000   0.000000000000000
disp C   0.000000000000000   0.000000000000000   0.000000000000000
disp C   0.000000000000000   0.000000000000000   0.000000000000000
disp C   0.000000000000000   0.000000000000000   0.000000000000000
disp C   0.000000000000000   0.000000000000000   0.000000000000000
disp C   0.000000000000000   0.000000000000000   0.000000000000000
disp C   0.000000000000000   0.000000000000000   0.000000000000000
disp C   0.000000000000000   0.000000000000000   0.000000000000000
disp C   0.000000000000000   0.000000000000000   0.000000000000000
disp C   0.000000000000000   0.000000000000000   0.000000000000000
disp C   0.000000000000000   0.000000000000000   0.000000000000000
disp C   0.000000000000000   0.000000000000000   0.000000000000000
disp C   0.000000000000000   0.000000000000000   0.000000000000000
disp C   0.000000000000000   0.000000000000000   0.000000000000000
disp C   0.000000000000000   0.000000000000000   0.000000000000000
disp C   0.000000000000000   0.000000000000000   0.000000000000000
disp C   0.000000000000000   0.000000000000000   0.000000000000000
disp C   0.001154687232684   0.002027320896179   0.002423089593999
disp N   0.000000000000000   0.000000000000000   0.000000000000000
disp N   0.000000000000000   0.000000000000000   0.000000000000000
disp N   0.000000000000000   0.000000000000000   0.000000000000000
disp N   0.000000000000000   0.000000000000000   0.000000000000000
disp Ti   0.000000000000000   0.000000000000000   0.000000000000000
disp O   0.000954465209975   0.001342288826477   0.004389498575485
disp O  -0.000544360954132  -0.000254334723441   0.001857944240126

Real mode 5:
Frequency: 0.003231 Eh [ 709 cm^-1 ]
Degeneracy: 1 of 1
IR intensity: 0.3737 e^2/amu [ 364.3 km/mol ]
Displacements:
disp C   0.000000000000000   0.000000000000000   0.000000000000000
disp C   0.000000000000000   0.000000000000000   0.000000000000000
disp C   0.000000000000000   0.000000000000000   0.000000000000000
disp C   0.000000000000000   0.000000000000000   0.000000000000000
disp C   0.000000000000000   0.000000000000000   0.000000000000000
disp C   0.000000000000000   0.000000000000000   0.000000000000000
disp C   0.000000000000000   0.000000000000000   0.000000000000000
disp C   0.000000000000000   0.000000000000000   0.000000000000000
disp C   0.000000000000000   0.000000000000000   0.000000000000000
disp C   0.000000000000000   0.000000000000000   0.000000000000000
disp C   0.000000000000000   0.000000000000000   0.000000000000000
disp C   0.000000000000000   0.000000000000000   0.000000000000000
disp C   0.000000000000000   0.000000000000000   0.000000000000000
disp C   0.000000000000000   0.000000000000000   0.000000000000000
disp C   0.000000000000000   0.000000000000000   0.000000000000000
disp C   0.000000000000000   0.000000000000000   0.000000000000000
disp C   0.000000000000000   0.000000000000000   0.000000000000000
disp C   0.000000000000000   0.000000000000000   0.000000000000000
disp C   0.000000000000000   0.000000000000000   0.000000000000000
disp C   0.000000000000000   0.000000000000000   0.000000000000000
disp C   0.000000000000000   0.000000000000000   0.000000000000000
disp C   0.000000000000000   0.000000000000000   0.000000000000000
disp C   0.000000000000000   0.000000000000000   0.000000000000000
disp C   0.000000000000000   0.000000000000000   0.000000000000000
disp C   0.000000000000000   0.000000000000000   0.000000000000000
disp C   0.000000000000000   0.000000000000000   0.000000000000000
disp C   0.000000000000000   0.000000000000000   0.000000000000000
disp C   0.000000000000000   0.000000000000000   0.000000000000000
disp C   0.000000000000000   0.000000000000000   0.000000000000000
disp C   0.000000000000000   0.000000000000000   0.000000000000000
disp C   0.000000000000000   0.000000000000000   0.000000000000000
disp C   0.000000000000000   0.000000000000000   0.000000000000000
disp C   0.000000000000000   0.000000000000000   0.000000000000000
disp C   0.000000000000000   0.000000000000000   0.000000000000000
disp C   0.000000000000000   0.000000000000000   0.000000000000000
disp C   0.000000000000000   0.000000000000000   0.000000000000000
disp C   0.000000000000000   0.000000000000000   0.000000000000000
disp C   0.000000000000000   0.000000000000000   0.000000000000000
disp C   0.000000000000000   0.000000000000000   0.000000000000000
disp C   0.000000000000000   0.000000000000000   0.000000000000000
disp C   0.000000000000000   0.000000000000000   0.000000000000000
disp C   0.000000000000000   0.000000000000000   0.000000000000000
disp C   0.000000000000000   0.000000000000000   0.000000000000000
disp C   0.000000000000000   0.000000000000000   0.000000000000000
disp C   0.000175259977346   0.001135703289269   0.003143159041178
disp N   0.000000000000000   0.000000000000000   0.000000000000000
disp N   0.000000000000000   0.000000000000000   0.000000000000000
disp N   0.000000000000000   0.000000000000000   0.000000000000000
disp N   0.000000000000000   0.000000000000000   0.000000000000000
disp Ti   0.000000000000000   0.000000000000000   0.000000000000000
disp O   0.000217366775898   0.001598364833012  -0.003181320663200
disp O  -0.000051915847399  -0.003200071030299   0.001706914485915

Real mode 6:
Frequency: 0.004785 Eh [ 1050 cm^-1 ]
Degeneracy: 1 of 1
IR intensity: 0.1315 e^2/amu [ 128.2 km/mol ]
Displacements:
disp C   0.000000000000000   0.000000000000000   0.000000000000000
disp C   0.000000000000000   0.000000000000000   0.000000000000000
disp C   0.000000000000000   0.000000000000000   0.000000000000000
disp C   0.000000000000000   0.000000000000000   0.000000000000000
disp C   0.000000000000000   0.000000000000000   0.000000000000000
disp C   0.000000000000000   0.000000000000000   0.000000000000000
disp C   0.000000000000000   0.000000000000000   0.000000000000000
disp C   0.000000000000000   0.000000000000000   0.000000000000000
disp C   0.000000000000000   0.000000000000000   0.000000000000000
disp C   0.000000000000000   0.000000000000000   0.000000000000000
disp C   0.000000000000000   0.000000000000000   0.000000000000000
disp C   0.000000000000000   0.000000000000000   0.000000000000000
disp C   0.000000000000000   0.000000000000000   0.000000000000000
disp C   0.000000000000000   0.000000000000000   0.000000000000000
disp C   0.000000000000000   0.000000000000000   0.000000000000000
disp C   0.000000000000000   0.000000000000000   0.000000000000000
disp C   0.000000000000000   0.000000000000000   0.000000000000000
disp C   0.000000000000000   0.000000000000000   0.000000000000000
disp C   0.000000000000000   0.000000000000000   0.000000000000000
disp C   0.000000000000000   0.000000000000000   0.000000000000000
disp C   0.000000000000000   0.000000000000000   0.000000000000000
disp C   0.000000000000000   0.000000000000000   0.000000000000000
disp C   0.000000000000000   0.000000000000000   0.000000000000000
disp C   0.000000000000000   0.000000000000000   0.000000000000000
disp C   0.000000000000000   0.000000000000000   0.000000000000000
disp C   0.000000000000000   0.000000000000000   0.000000000000000
disp C   0.000000000000000   0.000000000000000   0.000000000000000
disp C   0.000000000000000   0.000000000000000   0.000000000000000
disp C   0.000000000000000   0.000000000000000   0.000000000000000
disp C   0.000000000000000   0.000000000000000   0.000000000000000
disp C   0.000000000000000   0.000000000000000   0.000000000000000
disp C   0.000000000000000   0.000000000000000   0.000000000000000
disp C   0.000000000000000   0.000000000000000   0.000000000000000
disp C   0.000000000000000   0.000000000000000   0.000000000000000
disp C   0.000000000000000   0.000000000000000   0.000000000000000
disp C   0.000000000000000   0.000000000000000   0.000000000000000
disp C   0.000000000000000   0.000000000000000   0.000000000000000
disp C   0.000000000000000   0.000000000000000   0.000000000000000
disp C   0.000000000000000   0.000000000000000   0.000000000000000
disp C   0.000000000000000   0.000000000000000   0.000000000000000
disp C   0.000000000000000   0.000000000000000   0.000000000000000
disp C   0.000000000000000   0.000000000000000   0.000000000000000
disp C   0.000000000000000   0.000000000000000   0.000000000000000
disp C   0.000000000000000   0.000000000000000   0.000000000000000
disp C  -0.000058755533372  -0.004604550215877  -0.001241336952361
disp N   0.000000000000000   0.000000000000000   0.000000000000000
disp N   0.000000000000000   0.000000000000000   0.000000000000000
disp N   0.000000000000000   0.000000000000000   0.000000000000000
disp N   0.000000000000000   0.000000000000000   0.000000000000000
disp Ti   0.000000000000000   0.000000000000000   0.000000000000000
disp O   0.000055789591551   0.004005116692040   0.000476831052948
disp O   0.000039213097038  -0.000100988153039   0.000963528899119

Real mode 7:
Frequency: 0.007240 Eh [ 1589 cm^-1 ]
Degeneracy: 1 of 1
IR intensity: 1.6589 e^2/amu [ 1617.2 km/mol ]
Displacements:
disp C   0.000000000000000   0.000000000000000   0.000000000000000
disp C   0.000000000000000   0.000000000000000   0.000000000000000
disp C   0.000000000000000   0.000000000000000   0.000000000000000
disp C   0.000000000000000   0.000000000000000   0.000000000000000
disp C   0.000000000000000   0.000000000000000   0.000000000000000
disp C   0.000000000000000   0.000000000000000   0.000000000000000
disp C   0.000000000000000   0.000000000000000   0.000000000000000
disp C   0.000000000000000   0.000000000000000   0.000000000000000
disp C   0.000000000000000   0.000000000000000   0.000000000000000
disp C   0.000000000000000   0.000000000000000   0.000000000000000
disp C   0.000000000000000   0.000000000000000   0.000000000000000
disp C   0.000000000000000   0.000000000000000   0.000000000000000
disp C   0.000000000000000   0.000000000000000   0.000000000000000
disp C   0.000000000000000   0.000000000000000   0.000000000000000
disp C   0.000000000000000   0.000000000000000   0.000000000000000
disp C   0.000000000000000   0.000000000000000   0.000000000000000
disp C   0.000000000000000   0.000000000000000   0.000000000000000
disp C   0.000000000000000   0.000000000000000   0.000000000000000
disp C   0.000000000000000   0.000000000000000   0.000000000000000
disp C   0.000000000000000   0.000000000000000   0.000000000000000
disp C   0.000000000000000   0.000000000000000   0.000000000000000
disp C   0.000000000000000   0.000000000000000   0.000000000000000
disp C   0.000000000000000   0.000000000000000   0.000000000000000
disp C   0.000000000000000   0.000000000000000   0.000000000000000
disp C   0.000000000000000   0.000000000000000   0.000000000000000
disp C   0.000000000000000   0.000000000000000   0.000000000000000
disp C   0.000000000000000   0.000000000000000   0.000000000000000
disp C   0.000000000000000   0.000000000000000   0.000000000000000
disp C   0.000000000000000   0.000000000000000   0.000000000000000
disp C   0.000000000000000   0.000000000000000   0.000000000000000
disp C   0.000000000000000   0.000000000000000   0.000000000000000
disp C   0.000000000000000   0.000000000000000   0.000000000000000
disp C   0.000000000000000   0.000000000000000   0.000000000000000
disp C   0.000000000000000   0.000000000000000   0.000000000000000
disp C   0.000000000000000   0.000000000000000   0.000000000000000
disp C   0.000000000000000   0.000000000000000   0.000000000000000
disp C   0.000000000000000   0.000000000000000   0.000000000000000
disp C   0.000000000000000   0.000000000000000   0.000000000000000
disp C   0.000000000000000   0.000000000000000   0.000000000000000
disp C   0.000000000000000   0.000000000000000   0.000000000000000
disp C   0.000000000000000   0.000000000000000   0.000000000000000
disp C   0.000000000000000   0.000000000000000   0.000000000000000
disp C   0.000000000000000   0.000000000000000   0.000000000000000
disp C   0.000000000000000   0.000000000000000   0.000000000000000
disp C   0.000024851969496   0.002183667771552  -0.005044348410521
disp N   0.000000000000000   0.000000000000000   0.000000000000000
disp N   0.000000000000000   0.000000000000000   0.000000000000000
disp N   0.000000000000000   0.000000000000000   0.000000000000000
disp N   0.000000000000000   0.000000000000000   0.000000000000000
disp Ti   0.000000000000000   0.000000000000000   0.000000000000000
disp O  -0.000027113699310  -0.000057455629600  -0.000027065517488
disp O   0.000002922419631  -0.001512688528568   0.003051565141551

Vibrational free energy components at T = 298 K:
	ZPE:          0.010367
	Evib:         0.012231
	TSvib:        0.003065
	Avib:         0.009166


Dumping 'jdft.n_up' ... done
Dumping 'jdft.n_dn' ... done
Dumping 'jdft.tau_up' ... done
Dumping 'jdft.tau_dn' ... done
Dumping 'jdft.eigenvals' ... done
Dumping 'jdft.eigStats' ... 
	eMin: -2.291629 at state 0 ( [ +0.000000 +0.000000 +0.000000 ] spin 1 )
	HOMO: -0.168482 at state 17 ( [ -0.333333 -0.333333 +0.000000 ] spin -1 )
	mu  : -0.160200
	LUMO: -0.157240 at state 4 ( [ +0.333333 +0.333333 +0.000000 ] spin 1 )
	eMax: +0.016270 at state 17 ( [ -0.333333 -0.333333 +0.000000 ] spin -1 )
	HOMO-LUMO gap: +0.011242
	Optical gap  : +0.011242 at state 4 ( [ +0.333333 +0.333333 +0.000000 ] spin 1 )
Dumping 'jdft.kPts' ... done
Dumping 'jdft.dosUp' ... done.
Dumping 'jdft.dosDn' ... done.
End date and time: Thu Nov 10 01:26:57 2022  (Duration: 0-6:28:18.24)
Done!

PROFILER:             augmentDensityGrid     0.792129 +/-     0.977492 s, 1344 calls,   1064.620964 s total
PROFILER:         augmentDensityGridGrad     0.524203 +/-     0.572699 s,  756 calls,    396.297242 s total
PROFILER:        augmentDensitySpherical     0.000463 +/-     0.000552 s, 1344 calls,      0.621909 s total
PROFILER:    augmentDensitySphericalGrad     0.000483 +/-     0.000598 s,  996 calls,      0.481382 s total
PROFILER:                 augmentOverlap     1.654567 +/-     2.178371 s, 2624 calls,   4341.584107 s total
PROFILER:        ColumnBundle::randomize     0.004921 +/-     0.000000 s,    1 calls,      0.004921 s total
PROFILER:                     diagouterI    16.003079 +/-     3.643614 s,  339 calls,   5425.043922 s total
PROFILER:              EdensityAndVscloc     5.334040 +/-     4.045679 s,  337 calls,   1797.571448 s total
PROFILER:                     EnlAndGrad     0.001366 +/-     0.001899 s, 1356 calls,      1.852504 s total
PROFILER:            ExCorrCommunication     0.061405 +/-     0.063676 s, 2134 calls,    131.037297 s total
PROFILER:               ExCorrFunctional     0.021775 +/-     0.004313 s,  368 calls,      8.013208 s total
PROFILER:                    ExCorrTotal     0.619176 +/-     0.111537 s,  368 calls,    227.856781 s total
PROFILER:                   Idag_DiagV_I    26.935276 +/-    11.472949 s,  239 calls,   6437.530905 s total
PROFILER:                    initWeights     1.862046 +/-     0.000000 s,    1 calls,      1.862046 s total
PROFILER:                    inv(matrix)     0.001923 +/-     0.000943 s,  267 calls,      0.513337 s total
PROFILER:            matrix::diagonalize     0.008408 +/-     0.005291 s,  558 calls,      4.691576 s total
PROFILER:                    matrix::set     0.000002 +/-     0.000004 s, 31042 calls,      0.075461 s total
PROFILER:            orthoMatrix(matrix)     0.001308 +/-     0.000793 s,  318 calls,      0.415907 s total
PROFILER:     RadialFunctionR::transform     0.005572 +/-     0.030661 s,  141 calls,      0.785716 s total
PROFILER:                    reduceKmesh     0.000000 +/-     0.000000 s,    1 calls,      0.000000 s total
PROFILER:   VanDerWaalsD3::energyAndGrad     0.034461 +/-     0.004937 s,   21 calls,      0.723679 s total
PROFILER:               WavefunctionDrag    26.040255 +/-     1.584605 s,   10 calls,    260.402547 s total
PROFILER:                            Y*M     0.736280 +/-     0.855088 s, 4954 calls,   3647.533137 s total
PROFILER:                          Y1^Y2     0.732640 +/-     0.858604 s, 3559 calls,   2607.465662 s total

MEMUSAGE:                   ColumnBundle     1.333771 GB
MEMUSAGE:        complexScalarFieldTilde     0.049438 GB
MEMUSAGE:                    IndexArrays     0.023178 GB
MEMUSAGE:                         matrix     0.020675 GB
MEMUSAGE:                           misc     0.050872 GB
MEMUSAGE:                    ScalarField     0.395508 GB
MEMUSAGE:               ScalarFieldTilde     0.262436 GB
MEMUSAGE:                          Total     1.650425 GB
