
*************** JDFTx 1.7.0 (git hash 5f12716a) ***************

Start date and time: Tue Jul 19 03:15:20 2022
Executable /home/nisi6161/jdftx_alpine/build/jdftx with command-line: -i in
Running on hosts (process indices):  c3cpu-a2-u9-4.rc.int.colorado.edu (0-17)
Divided in process groups (process indices):  0 (0)  1 (1)  2 (2)  3 (3)  4 (4)  5 (5)  6 (6)  7 (7)  8 (8)  9 (9)  10 (10)  11 (11)  12 (12)  13 (13)  14 (14)  15 (15)  16 (16)  17 (17)
Resource initialization completed at t[s]:      0.00
Run totals: 18 processes, 64 threads, 0 GPUs


Input parsed successfully to the following command list (including defaults):

basis kpoint-dependent
converge-empty-states yes
coords-type Cartesian
core-overlap-check none
coulomb-interaction Periodic
davidson-band-ratio 1.1
density-of-states Etol 1.000000e-06 Esigma 1.000000e-03 \
		Complete \
	Total \
	OrthoOrbital C 1   s \
	OrthoOrbital C 1   p \
	OrthoOrbital C 1   px \
	OrthoOrbital C 1   py \
	OrthoOrbital C 1   pz \
	OrthoOrbital C 2   s \
	OrthoOrbital C 2   p \
	OrthoOrbital C 2   px \
	OrthoOrbital C 2   py \
	OrthoOrbital C 2   pz \
	OrthoOrbital C 3   s \
	OrthoOrbital C 3   p \
	OrthoOrbital C 3   px \
	OrthoOrbital C 3   py \
	OrthoOrbital C 3   pz \
	OrthoOrbital C 4   s \
	OrthoOrbital C 4   p \
	OrthoOrbital C 4   px \
	OrthoOrbital C 4   py \
	OrthoOrbital C 4   pz \
	OrthoOrbital C 5   s \
	OrthoOrbital C 5   p \
	OrthoOrbital C 5   px \
	OrthoOrbital C 5   py \
	OrthoOrbital C 5   pz \
	OrthoOrbital C 6   s \
	OrthoOrbital C 6   p \
	OrthoOrbital C 6   px \
	OrthoOrbital C 6   py \
	OrthoOrbital C 6   pz \
	OrthoOrbital C 7   s \
	OrthoOrbital C 7   p \
	OrthoOrbital C 7   px \
	OrthoOrbital C 7   py \
	OrthoOrbital C 7   pz \
	OrthoOrbital C 8   s \
	OrthoOrbital C 8   p \
	OrthoOrbital C 8   px \
	OrthoOrbital C 8   py \
	OrthoOrbital C 8   pz \
	OrthoOrbital C 9   s \
	OrthoOrbital C 9   p \
	OrthoOrbital C 9   px \
	OrthoOrbital C 9   py \
	OrthoOrbital C 9   pz \
	OrthoOrbital C 10   s \
	OrthoOrbital C 10   p \
	OrthoOrbital C 10   px \
	OrthoOrbital C 10   py \
	OrthoOrbital C 10   pz \
	OrthoOrbital C 11   s \
	OrthoOrbital C 11   p \
	OrthoOrbital C 11   px \
	OrthoOrbital C 11   py \
	OrthoOrbital C 11   pz \
	OrthoOrbital C 12   s \
	OrthoOrbital C 12   p \
	OrthoOrbital C 12   px \
	OrthoOrbital C 12   py \
	OrthoOrbital C 12   pz \
	OrthoOrbital C 13   s \
	OrthoOrbital C 13   p \
	OrthoOrbital C 13   px \
	OrthoOrbital C 13   py \
	OrthoOrbital C 13   pz \
	OrthoOrbital C 14   s \
	OrthoOrbital C 14   p \
	OrthoOrbital C 14   px \
	OrthoOrbital C 14   py \
	OrthoOrbital C 14   pz \
	OrthoOrbital C 15   s \
	OrthoOrbital C 15   p \
	OrthoOrbital C 15   px \
	OrthoOrbital C 15   py \
	OrthoOrbital C 15   pz \
	OrthoOrbital C 16   s \
	OrthoOrbital C 16   p \
	OrthoOrbital C 16   px \
	OrthoOrbital C 16   py \
	OrthoOrbital C 16   pz \
	OrthoOrbital C 17   s \
	OrthoOrbital C 17   p \
	OrthoOrbital C 17   px \
	OrthoOrbital C 17   py \
	OrthoOrbital C 17   pz \
	OrthoOrbital C 18   s \
	OrthoOrbital C 18   p \
	OrthoOrbital C 18   px \
	OrthoOrbital C 18   py \
	OrthoOrbital C 18   pz \
	OrthoOrbital C 19   s \
	OrthoOrbital C 19   p \
	OrthoOrbital C 19   px \
	OrthoOrbital C 19   py \
	OrthoOrbital C 19   pz \
	OrthoOrbital C 20   s \
	OrthoOrbital C 20   p \
	OrthoOrbital C 20   px \
	OrthoOrbital C 20   py \
	OrthoOrbital C 20   pz \
	OrthoOrbital C 21   s \
	OrthoOrbital C 21   p \
	OrthoOrbital C 21   px \
	OrthoOrbital C 21   py \
	OrthoOrbital C 21   pz \
	OrthoOrbital C 22   s \
	OrthoOrbital C 22   p \
	OrthoOrbital C 22   px \
	OrthoOrbital C 22   py \
	OrthoOrbital C 22   pz \
	OrthoOrbital C 23   s \
	OrthoOrbital C 23   p \
	OrthoOrbital C 23   px \
	OrthoOrbital C 23   py \
	OrthoOrbital C 23   pz \
	OrthoOrbital C 24   s \
	OrthoOrbital C 24   p \
	OrthoOrbital C 24   px \
	OrthoOrbital C 24   py \
	OrthoOrbital C 24   pz \
	OrthoOrbital C 25   s \
	OrthoOrbital C 25   p \
	OrthoOrbital C 25   px \
	OrthoOrbital C 25   py \
	OrthoOrbital C 25   pz \
	OrthoOrbital C 26   s \
	OrthoOrbital C 26   p \
	OrthoOrbital C 26   px \
	OrthoOrbital C 26   py \
	OrthoOrbital C 26   pz \
	OrthoOrbital C 27   s \
	OrthoOrbital C 27   p \
	OrthoOrbital C 27   px \
	OrthoOrbital C 27   py \
	OrthoOrbital C 27   pz \
	OrthoOrbital C 28   s \
	OrthoOrbital C 28   p \
	OrthoOrbital C 28   px \
	OrthoOrbital C 28   py \
	OrthoOrbital C 28   pz \
	OrthoOrbital C 29   s \
	OrthoOrbital C 29   p \
	OrthoOrbital C 29   px \
	OrthoOrbital C 29   py \
	OrthoOrbital C 29   pz \
	OrthoOrbital C 30   s \
	OrthoOrbital C 30   p \
	OrthoOrbital C 30   px \
	OrthoOrbital C 30   py \
	OrthoOrbital C 30   pz \
	OrthoOrbital C 31   s \
	OrthoOrbital C 31   p \
	OrthoOrbital C 31   px \
	OrthoOrbital C 31   py \
	OrthoOrbital C 31   pz \
	OrthoOrbital C 32   s \
	OrthoOrbital C 32   p \
	OrthoOrbital C 32   px \
	OrthoOrbital C 32   py \
	OrthoOrbital C 32   pz \
	OrthoOrbital C 33   s \
	OrthoOrbital C 33   p \
	OrthoOrbital C 33   px \
	OrthoOrbital C 33   py \
	OrthoOrbital C 33   pz \
	OrthoOrbital C 34   s \
	OrthoOrbital C 34   p \
	OrthoOrbital C 34   px \
	OrthoOrbital C 34   py \
	OrthoOrbital C 34   pz \
	OrthoOrbital C 35   s \
	OrthoOrbital C 35   p \
	OrthoOrbital C 35   px \
	OrthoOrbital C 35   py \
	OrthoOrbital C 35   pz \
	OrthoOrbital C 36   s \
	OrthoOrbital C 36   p \
	OrthoOrbital C 36   px \
	OrthoOrbital C 36   py \
	OrthoOrbital C 36   pz \
	OrthoOrbital C 37   s \
	OrthoOrbital C 37   p \
	OrthoOrbital C 37   px \
	OrthoOrbital C 37   py \
	OrthoOrbital C 37   pz \
	OrthoOrbital C 38   s \
	OrthoOrbital C 38   p \
	OrthoOrbital C 38   px \
	OrthoOrbital C 38   py \
	OrthoOrbital C 38   pz \
	OrthoOrbital C 39   s \
	OrthoOrbital C 39   p \
	OrthoOrbital C 39   px \
	OrthoOrbital C 39   py \
	OrthoOrbital C 39   pz \
	OrthoOrbital C 40   s \
	OrthoOrbital C 40   p \
	OrthoOrbital C 40   px \
	OrthoOrbital C 40   py \
	OrthoOrbital C 40   pz \
	OrthoOrbital C 41   s \
	OrthoOrbital C 41   p \
	OrthoOrbital C 41   px \
	OrthoOrbital C 41   py \
	OrthoOrbital C 41   pz \
	OrthoOrbital C 42   s \
	OrthoOrbital C 42   p \
	OrthoOrbital C 42   px \
	OrthoOrbital C 42   py \
	OrthoOrbital C 42   pz \
	OrthoOrbital C 43   s \
	OrthoOrbital C 43   p \
	OrthoOrbital C 43   px \
	OrthoOrbital C 43   py \
	OrthoOrbital C 43   pz \
	OrthoOrbital C 44   s \
	OrthoOrbital C 44   p \
	OrthoOrbital C 44   px \
	OrthoOrbital C 44   py \
	OrthoOrbital C 44   pz \
	OrthoOrbital C 45   s \
	OrthoOrbital C 45   p \
	OrthoOrbital C 45   px \
	OrthoOrbital C 45   py \
	OrthoOrbital C 45   pz \
	OrthoOrbital N 1   s \
	OrthoOrbital N 1   p \
	OrthoOrbital N 1   px \
	OrthoOrbital N 1   py \
	OrthoOrbital N 1   pz \
	OrthoOrbital N 2   s \
	OrthoOrbital N 2   p \
	OrthoOrbital N 2   px \
	OrthoOrbital N 2   py \
	OrthoOrbital N 2   pz \
	OrthoOrbital N 3   s \
	OrthoOrbital N 3   p \
	OrthoOrbital N 3   px \
	OrthoOrbital N 3   py \
	OrthoOrbital N 3   pz \
	OrthoOrbital N 4   s \
	OrthoOrbital N 4   p \
	OrthoOrbital N 4   px \
	OrthoOrbital N 4   py \
	OrthoOrbital N 4   pz \
	OrthoOrbital Ti 1   s \
	OrthoOrbital Ti 1   p \
	OrthoOrbital Ti 1   px \
	OrthoOrbital Ti 1   py \
	OrthoOrbital Ti 1   pz \
	OrthoOrbital Ti 1   d \
	OrthoOrbital Ti 1   dxy \
	OrthoOrbital Ti 1   dyz \
	OrthoOrbital Ti 1   dz2 \
	OrthoOrbital Ti 1   dxz \
	OrthoOrbital Ti 1   dx2-y2 \
	OrthoOrbital O 1   s \
	OrthoOrbital O 1   p \
	OrthoOrbital O 1   px \
	OrthoOrbital O 1   py \
	OrthoOrbital O 1   pz \
	OrthoOrbital O 2   s \
	OrthoOrbital O 2   p \
	OrthoOrbital O 2   px \
	OrthoOrbital O 2   py \
	OrthoOrbital O 2   pz \
	OrthoOrbital O 3   s \
	OrthoOrbital O 3   p \
	OrthoOrbital O 3   px \
	OrthoOrbital O 3   py \
	OrthoOrbital O 3   pz \
	OrthoOrbital H 1   s \
	OrthoOrbital H 2   s
dump End ElecDensity KEdensity BandEigs EigStats RhoAtom DOS Kpoints
dump Ionic State IonicPositions Lattice EigStats Ecomponents
dump 
dump 
dump 
dump 
dump 
dump 
dump 
dump 
dump-name jdft.$VAR
elec-cutoff 20
elec-eigen-algo Davidson
elec-ex-corr gga-PBE
elec-initial-magnetization 0.000000 no
elec-n-bands 140
elec-smearing Fermi 0.001
electronic-minimize  \
	dirUpdateScheme      FletcherReeves \
	linminMethod         DirUpdateRecommended \
	nIterations          100 \
	history              15 \
	knormThreshold       0 \
	energyDiffThreshold  1e-07 \
	nEnergyDiff          2 \
	alphaTstart          1 \
	alphaTmin            1e-10 \
	updateTestStepSize   yes \
	alphaTreduceFactor   0.1 \
	alphaTincreaseFactor 3 \
	nAlphaAdjustMax      3 \
	wolfeEnergy          0.0001 \
	wolfeGradient        0.9 \
	fdTest               no
exchange-regularization WignerSeitzTruncated
fluid LinearPCM 298.000000 1.013250
fluid-anion F- 0.5 MeanFieldLJ \
	epsBulk 1 \
	pMol 0 \
	epsInf 1 \
	Pvap 0 \
	sigmaBulk 0 \
	Rvdw 2.24877 \
	Res 0 \
	tauNuc 343133
fluid-cation Na+ 0.5 MeanFieldLJ \
	epsBulk 1 \
	pMol 0 \
	epsInf 1 \
	Pvap 0 \
	sigmaBulk 0 \
	Rvdw 2.19208 \
	Res 0 \
	tauNuc 343133
fluid-ex-corr lda-TF lda-PZ
fluid-gummel-loop 10 1.000000e-05
fluid-minimize  \
	dirUpdateScheme      PolakRibiere \
	linminMethod         DirUpdateRecommended \
	nIterations          400 \
	history              15 \
	knormThreshold       1e-11 \
	energyDiffThreshold  0 \
	nEnergyDiff          2 \
	alphaTstart          1 \
	alphaTmin            1e-10 \
	updateTestStepSize   yes \
	alphaTreduceFactor   0.1 \
	alphaTincreaseFactor 3 \
	nAlphaAdjustMax      6 \
	wolfeEnergy          0.0001 \
	wolfeGradient        0.9 \
	fdTest               no
fluid-solvent H2O 55.338 ScalarEOS \
	epsBulk 78.4 \
	pMol 0.92466 \
	epsInf 1.77 \
	Pvap 1.06736e-10 \
	sigmaBulk 4.62e-05 \
	Rvdw 2.61727 \
	Res 1.42 \
	tauNuc 343133 \
	poleEl 15 7 1
forces-output-coords Positions
initial-state jdft.$VAR
ion C  -0.007454488017512   0.085058557213497  43.322684109058137 1
ion C  21.041813473707297   4.043158592672630  43.293615925327778 1
ion C  18.693756981719563   8.049291605328781  43.188745361144392 1
ion C  -7.052932005228888  12.050308504330239  43.177118573318801 1
ion C  -9.378103175351090  16.065044087184937  43.270595457637270 1
ion C   4.677932238683261   0.197959183391724   0.089570214594117 1
ion C   2.286971612535631   4.207821901715295   0.173720395357744 1
ion C  -0.127616687411839   8.029273699567387   0.111685110776187 1
ion C  -2.446399128867260  12.042050388397476  43.246505528991072 1
ion C  -4.735287212441095  16.071898021057308  43.259865890149889 1
ion C   9.369927168153417   0.086059460134655  43.284152452668984 1
ion C   7.084852571309279   4.194520245366925   0.122986207556251 1
ion C  -0.043807164571685  15.974036396341351   0.058515018640957 1
ion C   2.340762953591250  19.928008870319260  43.292525257577871 1
ion C  11.756183658555210   4.028836378857918  43.241332549715572 1
ion C   9.475355358899051   8.016197151115202   0.049272115406689 1
ion C   4.664407827265117  15.828248205552716   0.166098928965415 1
ion C   6.991579724256660  19.932848315583144  43.312704430047042 1
ion C  16.399030536063243   4.014850400743537  43.222327326314058 1
ion C  14.092883093682790   8.041234040356068  43.170462040370694 1
ion C  11.773616372291636  12.043372548205681  43.248792884274486 1
ion C   9.368678496173354  15.977190307137421   0.073400386450924 1
ion C  -0.020968393432910   2.772785100642380   0.086098070862124 1
ion C  -2.428374102935956   6.701712520027560  43.267797612552798 1
ion C  -4.751256868635397  10.702034003796067  43.181448128481470 1
ion C  -7.054927232618019  14.728711917393927  43.229964034942697 1
ion C  -9.379765422932099  18.753914858998687  43.319169898491211 1
ion C   4.680070706147774   2.916183531179954   0.157515623715127 1
ion C  -0.137695026136087  10.729457291690155   0.103610552768029 1
ion C  -2.412912446484738  14.715465964940591  43.269686423164700 1
ion C  -4.728702914534346  18.758407793544436  43.302001585355121 1
ion C   9.388959389210990   2.767615343052276   0.027103769287791 1
ion C   2.260353664412817  14.539833423239804   0.167072667023048 1
ion C  -0.023160487186331  18.656016256015313  43.288070587493436 1
ion C  14.079392487298104   2.672788033968485  43.242687730579128 1
ion C  11.786024012025738   6.703234859879848  43.219819777676250 1
ion C   9.470748682497607  10.718939753123333   0.073297687935244 1
ion C   7.060843110208648  14.545263376899708   0.157614826142509 1
ion C   4.666897505734745  18.546502068174245   0.085083239784505 1
ion C  18.723180202386057   2.680045967928490  43.268579166243669 1
ion C  16.396211587896413   6.693141191446246  43.174840058490702 1
ion C  14.085995974181412  10.712179459545748  43.178755992264655 1
ion C  11.739691096029050  14.720564852896530  43.282413163553805 1
ion C   9.355068668730482  18.664046083955764  43.318392177672429 1
ion C   4.940150743349235   8.321998212487099   5.404308644780841 1
ion N   2.127690873922018  11.956939883092298   0.265155575697462 1
ion N   7.190462749933648  11.947040246963894   0.223432132143906 1
ion N   2.160047386262889   6.810966067051792   0.265642154305215 1
ion N   7.207362245192918   6.776468633931046   0.194564316137826 1
ion Ti   4.719474706942229   9.358375321921292   1.684851991477319 1
ion O   4.086255697753693  10.658716764666249   5.147549773704521 1
ion O   5.296576215002678   7.184803072111348   7.424171985909272 1
ion O   7.227938895247406   2.447641279708594   6.731854627330509 1
ion H   6.445155702770835   4.168269413874198   6.890447648357788 1
ion H   5.796869386761146   1.317088591279708   6.398658211331263 1
ion-species /projects/musgravc/apps/jdftx-1.6.0/build/pseudopotentials/GBRV_v1.5/$ID_pbe_v1.uspp
ion-species /projects/musgravc/apps/jdftx-1.6.0/build/pseudopotentials/GBRV_v1.5/$ID_pbe_v1.2.uspp
ion-species /projects/musgravc/apps/jdftx-1.6.0/build/pseudopotentials/GBRV_v1.5/$ID_pbe_v1.4.uspp
ion-species /projects/musgravc/apps/jdftx-1.6.0/build/pseudopotentials/GBRV_v1.5/$ID_pbe_v1.5.uspp
ion-width Ecut
ionic-minimize  \
	dirUpdateScheme      L-BFGS \
	linminMethod         DirUpdateRecommended \
	nIterations          100 \
	history              15 \
	knormThreshold       0.0001 \
	energyDiffThreshold  1e-06 \
	nEnergyDiff          2 \
	alphaTstart          1 \
	alphaTmin            1e-10 \
	updateTestStepSize   yes \
	alphaTreduceFactor   0.1 \
	alphaTincreaseFactor 1 \
	nAlphaAdjustMax      1 \
	wolfeEnergy          0.0001 \
	wolfeGradient        0.9 \
	fdTest               no
kpoint   0.000000000000   0.000000000000   0.000000000000  1.00000000000000
kpoint-folding 3 3 1 
latt-move-scale 0 0 0
latt-scale 1 1 1 
lattice  \
	  23.436261999999999  -11.733459000000000    0.000000000000000  \
	   0.017994000000000   19.941849000000001    0.000000000000000  \
	   0.000000000000000    0.000000000000000   43.256312999999999 
lattice-minimize  \
	dirUpdateScheme      L-BFGS \
	linminMethod         DirUpdateRecommended \
	nIterations          0 \
	history              15 \
	knormThreshold       0 \
	energyDiffThreshold  1e-06 \
	nEnergyDiff          2 \
	alphaTstart          1 \
	alphaTmin            1e-10 \
	updateTestStepSize   yes \
	alphaTreduceFactor   0.1 \
	alphaTincreaseFactor 3 \
	nAlphaAdjustMax      3 \
	wolfeEnergy          0.0001 \
	wolfeGradient        0.9 \
	fdTest               no
lcao-params 30 1e-06 0.001
pcm-variant CANDLE
spintype z-spin
subspace-rotation-factor 1 yes
symmetries none
symmetry-threshold 0.0001
target-mu -0.1455 no

van-der-waals D3


Applied RMS atom displacement 0 bohrs to make symmetries exact.

---------- Initializing the Grid ----------
R = 
[      23.4363     -11.7335            0  ]
[     0.017994      19.9418            0  ]
[            0            0      43.2563  ]
unit cell volume = 20225.5
G =
[   0.267976   0.157673         -0  ]
[ -0.000241801   0.314933          0  ]
[          0         -0   0.145255  ]
Minimum fftbox size, Smin = [  96  96  176  ]
Chosen fftbox size, S = [  96  96  180  ]

---------- Exchange Correlation functional ----------
Initalized PBE GGA exchange.
Initalized PBE GGA correlation.

---------- Setting up pseudopotentials ----------
Width of ionic core gaussian charges (only for fluid interactions / plotting) set to 0.397384

Reading pseudopotential file '/projects/musgravc/apps/jdftx-1.6.0/build/pseudopotentials/GBRV_v1.5/c_pbe_v1.2.uspp':
  Title: C.  Created by USPP 7.3.6 on 3-2-2014
  Reference state energy: -5.406344.  4 valence electrons in orbitals:
    |200>  occupation: 2  eigenvalue: -0.504890
    |210>  occupation: 2  eigenvalue: -0.194356
  lMax: 1  lLocal: 2  QijEcut: 5
  4 projectors sampled on a log grid with 503 points:
    l: 0  eig: -0.504890  rCut: 1.3
    l: 0  eig: 0.000000  rCut: 1.3
    l: 1  eig: -0.194357  rCut: 1.3
    l: 1  eig: 0.000000  rCut: 1.3
  Partial core density with radius 1.1
  Transforming core density to a uniform radial grid of dG=0.02 with 1464 points.
  Transforming local potential to a uniform radial grid of dG=0.02 with 1464 points.
  Transforming nonlocal projectors to a uniform radial grid of dG=0.02 with 432 points.
  Transforming density augmentations to a uniform radial grid of dG=0.02 with 1464 points.
  Transforming atomic orbitals to a uniform radial grid of dG=0.02 with 432 points.
  Core radius for overlap checks: 1.30 bohrs.

Reading pseudopotential file '/projects/musgravc/apps/jdftx-1.6.0/build/pseudopotentials/GBRV_v1.5/n_pbe_v1.2.uspp':
  Title: N.  Created by USPP 7.3.6 on 3-2-2014
  Reference state energy: -9.763716.  5 valence electrons in orbitals:
    |200>  occupation: 2  eigenvalue: -0.681964
    |210>  occupation: 3  eigenvalue: -0.260726
  lMax: 1  lLocal: 2  QijEcut: 6
  4 projectors sampled on a log grid with 491 points:
    l: 0  eig: -0.681964  rCut: 1.15
    l: 0  eig: 0.000000  rCut: 1.15
    l: 1  eig: -0.260729  rCut: 1.2
    l: 1  eig: 0.500000  rCut: 1.2
  Partial core density with radius 0.8
  Transforming core density to a uniform radial grid of dG=0.02 with 1464 points.
  Transforming local potential to a uniform radial grid of dG=0.02 with 1464 points.
  Transforming nonlocal projectors to a uniform radial grid of dG=0.02 with 432 points.
  Transforming density augmentations to a uniform radial grid of dG=0.02 with 1464 points.
  Transforming atomic orbitals to a uniform radial grid of dG=0.02 with 432 points.
  Core radius for overlap checks: 1.20 bohrs.

Reading pseudopotential file '/projects/musgravc/apps/jdftx-1.6.0/build/pseudopotentials/GBRV_v1.5/ti_pbe_v1.4.uspp':
  Title: Ti.  Created by USPP 7.3.6 on 31-3-15
  Reference state energy: -59.020943.  12 valence electrons in orbitals:
    |300>  occupation: 2  eigenvalue: -2.777623
    |310>  occupation: 6  eigenvalue: -1.894596
    |400>  occupation: 2  eigenvalue: -0.438610
    |320>  occupation: 1  eigenvalue: -0.583119
  lMax: 2  lLocal: 3  QijEcut: 6
  6 projectors sampled on a log grid with 597 points:
    l: 0  eig: -2.777624  rCut: 1.8
    l: 0  eig: -0.438611  rCut: 1.8
    l: 1  eig: -1.894596  rCut: 1.8
    l: 1  eig: 0.500000  rCut: 1.8
    l: 2  eig: -0.583118  rCut: 1.8
    l: 2  eig: 0.150000  rCut: 1.8
  Partial core density with radius 0.8
  Transforming core density to a uniform radial grid of dG=0.02 with 1464 points.
  Transforming local potential to a uniform radial grid of dG=0.02 with 1464 points.
  Transforming nonlocal projectors to a uniform radial grid of dG=0.02 with 432 points.
  Transforming density augmentations to a uniform radial grid of dG=0.02 with 1464 points.
  Transforming atomic orbitals to a uniform radial grid of dG=0.02 with 432 points.
  Core radius for overlap checks: 1.80 bohrs.

Reading pseudopotential file '/projects/musgravc/apps/jdftx-1.6.0/build/pseudopotentials/GBRV_v1.5/o_pbe_v1.2.uspp':
  Title: O.  Created by USPP 7.3.6 on 3-2-2014
  Reference state energy: -15.894388.  6 valence electrons in orbitals:
    |200>  occupation: 2  eigenvalue: -0.878823
    |210>  occupation: 4  eigenvalue: -0.332131
  lMax: 2  lLocal: 2  QijEcut: 6
  5 projectors sampled on a log grid with 511 points:
    l: 0  eig: -0.878823  rCut: 1.25
    l: 0  eig: 0.000000  rCut: 1.25
    l: 1  eig: -0.332132  rCut: 1.25
    l: 1  eig: 0.000000  rCut: 1.25
    l: 2  eig: 1.000000  rCut: 1.25
  Partial core density with radius 0.7
  Transforming core density to a uniform radial grid of dG=0.02 with 1464 points.
  Transforming local potential to a uniform radial grid of dG=0.02 with 1464 points.
  Transforming nonlocal projectors to a uniform radial grid of dG=0.02 with 432 points.
  Transforming density augmentations to a uniform radial grid of dG=0.02 with 1464 points.
  Transforming atomic orbitals to a uniform radial grid of dG=0.02 with 432 points.
  Core radius for overlap checks: 1.25 bohrs.

Reading pseudopotential file '/projects/musgravc/apps/jdftx-1.6.0/build/pseudopotentials/GBRV_v1.5/h_pbe_v1.4.uspp':
  Title: H.  Created by USPP 7.3.6 on 2-4-15
  Reference state energy: -0.458849.  1 valence electrons in orbitals:
    |100>  occupation: 1  eigenvalue: -0.238595
  lMax: 0  lLocal: 1  QijEcut: 6
  2 projectors sampled on a log grid with 395 points:
    l: 0  eig: -0.238595  rCut: 1.2
    l: 0  eig: 1.000000  rCut: 1.2
  Transforming local potential to a uniform radial grid of dG=0.02 with 1464 points.
  Transforming nonlocal projectors to a uniform radial grid of dG=0.02 with 432 points.
  Transforming density augmentations to a uniform radial grid of dG=0.02 with 1464 points.
  Transforming atomic orbitals to a uniform radial grid of dG=0.02 with 432 points.
  Core radius for overlap checks: 1.20 bohrs.

Initialized 5 species with 55 total atoms.

Folded 1 k-points by 3x3x1 to 9 k-points.

---------- Setting up k-points, bands, fillings ----------
No reducable k-points. 
Computing the number of bands and number of electrons
Reading initial fillings from file jdft.fillings.
nElectrons: 232.000000   nBands: 140   nStates: 18

----- Setting up reduced wavefunction bases (one per k-point) -----
average nbasis = 86412.556 , ideal nbasis = 86404.907

----- Initializing Supercell corresponding to k-point mesh -----
Lattice vector linear combinations in supercell:
[   3   0   0  ]
[   0   3   0  ]
[   0   0   1  ]
Supercell lattice vectors:
[  70.3088  -35.2004  0  ]
[  0.053982  59.8255  0  ]
[  0  0  43.2563  ]

Initializing DFT-D3 calculator:
	Parameters set for gga-PBE functional
	s6:  1.000  s_r6:  1.217
	s8:  0.722  s_r8:  1.000
	Per-atom parameters loaded for:
	 C:  sqrtQ[a0]:  3.105  Rcov[a0]:  1.417  CN: [ 0.00 0.99 2.00 3.00 3.98 ]
	 N:  sqrtQ[a0]:  2.712  Rcov[a0]:  1.342  CN: [ 0.00 0.99 2.01 2.99 ]
	Ti:  sqrtQ[a0]:  6.288  Rcov[a0]:  2.305  CN: [ 0.00 1.83 3.87 ]
	 O:  sqrtQ[a0]:  2.594  Rcov[a0]:  1.191  CN: [ 0.00 0.99 1.99 ]
	 H:  sqrtQ[a0]:  2.007  Rcov[a0]:  0.605  CN: [ 0.91 0.00 ]

Initializing DFT-D2 calculator for fluid / solvation:
	 C:  C6:   30.35 Eh-a0^6  R0: 2.744 a0
	 N:  C6:   21.33 Eh-a0^6  R0: 2.640 a0
	Ti:  C6:  187.33 Eh-a0^6  R0: 2.952 a0
	 O:  C6:   12.14 Eh-a0^6  R0: 2.536 a0
	 H:  C6:    2.43 Eh-a0^6  R0: 1.892 a0

---------- Setting up ewald sum ----------
Optimum gaussian width for ewald sums = 5.573775 bohr.
Real space sum over 567 unit cells with max indices [  4  4  3  ]
Reciprocal space sum over 7803 terms with max indices [  8  8  13  ]

Computing DFT-D3 correction:
# coordination-number C 3.301 3.322 3.335 3.333 3.313 3.290 3.326 3.579 3.331 3.314 3.304 3.333 3.306 3.301 3.326 3.617 3.265 3.300 3.319 3.335 3.328 3.303 3.302 3.328 3.336 3.319 3.300 3.268 3.570 3.326 3.302 3.307 3.325 3.303 3.314 3.331 3.618 3.327 3.289 3.313 3.333 3.335 3.322 3.301 3.000
# coordination-number N 3.178 3.178 3.176 3.183
# coordination-number Ti 7.480
# coordination-number O 2.000 1.051 1.982
# coordination-number H 1.002 0.993
# diagonal-C6 C 24.28 24.06 23.92 23.94 24.16 24.37 24.02 20.54 23.96 24.14 24.25 23.94 24.22 24.27 24.02 20.07 24.59 24.28 24.09 23.92 23.99 24.25 24.26 24.00 23.91 24.09 24.28 24.57 20.65 24.02 24.27 24.21 24.03 24.26 24.15 23.97 20.06 24.01 24.38 24.16 23.94 23.92 24.06 24.27 25.67
# diagonal-C6 N 15.60 15.60 15.60 15.60
# diagonal-C6 Ti 321.59
# diagonal-C6 O 10.41 12.77 10.41
# diagonal-C6 H 3.09 3.09
EvdW_6 =   -0.044039
EvdW_8 =   -0.033561

---------- Allocating electronic variables ----------
Initializing wave functions:  reading from 'jdft.wfns'
----- createFluidSolver() ----- (Fluid-side solver setup)
   Initializing fluid molecule 'H2O'
     Initializing site 'O'
       Electron density: proportional to exp(-r/0.36935)*erfc((r-0.51523)/0.36823) with norm 6.826
       Charge density: gaussian nuclear width 0.478731 with net site charge 0.826
       Polarizability: cuspless exponential with width 0.32 and norm 3.73
       Hard sphere radius: 2.57003 bohrs
       Positions in reference frame:
         [ +0.000000 +0.000000 +0.000000 ]
     Initializing site 'H'
       Electron density: proportional to exp(-r/0.34641)*erfc((r-0)/0.390882) with norm 0.587
       Charge density: gaussian nuclear width 0.377945 with net site charge -0.413
       Polarizability: cuspless exponential with width 0.39 and norm 3.3
       Positions in reference frame:
         [ +0.000000 -1.441945 +1.122523 ]
         [ +0.000000 +1.441945 +1.122523 ]
     Net charge: 0   dipole magnitude: 0.927204
     Initializing spherical shell mfKernel with radius 2.61727 Bohr
     deltaS corrections:
       site 'O': -7.54299
       site 'H': -6.83917
   Initializing fluid molecule 'Na+'
     Initializing site 'Na'
       Electron density: proportional to exp(-r/0.19682)*erfc((r-0.71491)/0.41314) with norm 8.1383
       Charge density: gaussian nuclear width 0.365347 with net site charge -1
       Hard sphere radius: 1.86327 bohrs
       Positions in reference frame:
         [ +0.000000 +0.000000 +0.000000 ]
     Net charge: -1   dipole magnitude: 0
     Initializing gaussian mfKernel with width: 1.55004 Bohr
     deltaS corrections:
       site 'Na': -22.3555
   Initializing fluid molecule 'F-'
     Initializing site 'F'
       Electron density: proportional to exp(-r/0.38886)*erfc((r-0)/0.438782) with norm 8
       Charge density: gaussian nuclear width 0.374796 with net site charge 1
       Hard sphere radius: 2.39995 bohrs
       Positions in reference frame:
         [ +0.000000 +0.000000 +0.000000 ]
     Net charge: 1   dipole magnitude: 0
     Initializing gaussian mfKernel with width: 1.59012 Bohr
     deltaS corrections:
       site 'F': -9.04335

Correction to mu due to finite nuclear width = -0.0113812
   Cavity determined by nc: 0.00142 and sigma: 0.707107
   Nonlocal vdW cavity from gaussian model electron density with norm = 8 and sigma = 0.993594 bohr
   Charge asymmetry in cavity with sensitivity pCavity = 36.5 e-bohr/Eh
   Electrostatic cavity expanded by eta = 1.46 bohrs
   Weighted density cavitation model constrained by Nbulk: 0.0049383 bohr^-3, Pvap: 3.14029 kPa, Rvdw: 2.61727 bohr and sigmaBulk: 4.62e-05 Eh/bohr^2 at T: 298 K.
   Weighted density dispersion model using vdW pair potentials with single solvent site with sqrtC6eff: 0.77 SI.
Reading fluid state from 'jdft.fluidState'


---- Citations for features of the code used in this run ----

   Software package:
      R. Sundararaman, K. Letchworth-Weaver, K.A. Schwarz, D. Gunceler, Y. Ozhabes and T.A. Arias, 'JDFTx: software for joint density-functional theory', SoftwareX 6, 278 (2017)

   gga-PBE exchange-correlation functional:
      J.P. Perdew, K. Burke and M. Ernzerhof, Phys. Rev. Lett. 77, 3865 (1996)

   Pseudopotentials:
      KF Garrity, JW Bennett, KM Rabe and D Vanderbilt, Comput. Mater. Sci. 81, 446 (2014)

   DFT-D3 dispersion correction:
      S. Grimme, J. Antony, S. Ehrlich and H. Krieg, J. Chem. Phys. 132, 154104 (2010)

   DFT-D2 dispersion correction:
      S. Grimme, J. Comput. Chem. 27, 1787 (2006)

   Charge-asymmetric nonlocally-determined local-electric (CANDLE) solvation model:
      R. Sundararaman and W.A. Goddard III, J. Chem. Phys. 142, 064107 (2015)

   Total energy minimization with Auxiliary Hamiltonian:
      C. Freysoldt, S. Boeck, and J. Neugebauer, Phys. Rev. B 79, 241103(R) (2009)

   Grand-canonical (fixed-potential) DFT:
      R. Sundararaman, W. A. Goddard III and T. A. Arias, J. Chem. Phys. 146, 114104 (2017)

   Linear-tetrahedron sampling for density of states:
      G. Lehmann and M. Taut, Phys. status solidi (b) 54, 469 (1972)

This list may not be complete. Please suggest additional citations or
report any other bugs at https://github.com/shankar1729/jdftx/issues

Initialization completed successfully at t[s]:     24.28


Computing DFT-D3 correction:
# coordination-number C 3.301 3.322 3.335 3.333 3.313 3.290 3.326 3.579 3.331 3.314 3.304 3.333 3.306 3.301 3.326 3.617 3.265 3.300 3.319 3.335 3.328 3.303 3.302 3.328 3.336 3.319 3.300 3.268 3.570 3.326 3.302 3.307 3.325 3.303 3.314 3.331 3.618 3.327 3.289 3.313 3.333 3.335 3.322 3.301 3.000
# coordination-number N 3.178 3.178 3.176 3.183
# coordination-number Ti 7.480
# coordination-number O 2.000 1.051 1.982
# coordination-number H 1.002 0.993
# diagonal-C6 C 24.28 24.06 23.92 23.94 24.16 24.37 24.02 20.54 23.96 24.14 24.25 23.94 24.22 24.27 24.02 20.07 24.59 24.28 24.09 23.92 23.99 24.25 24.26 24.00 23.91 24.09 24.28 24.57 20.65 24.02 24.27 24.21 24.03 24.26 24.15 23.97 20.06 24.01 24.38 24.16 23.94 23.92 24.06 24.27 25.67
# diagonal-C6 N 15.60 15.60 15.60 15.60
# diagonal-C6 Ti 321.59
# diagonal-C6 O 10.41 12.77 10.41
# diagonal-C6 H 3.09 3.09
EvdW_6 =   -0.044039
EvdW_8 =   -0.033561
Shifting auxilliary hamiltonian by 0.017819 to set nElectrons=232.000000

-------- Electronic minimization -----------
	Linear fluid (dielectric constant: 78.4, screening length: 8.12261 Bohr) occupying 0.712578 of unit cell:	Completed after 4 iterations at t[s]:     58.07
	FillingsUpdate:  mu: -0.145500000  nElectrons: 232.000000  magneticMoment: [ Abs: 0.00000  Tot: -0.00000 ]
ElecMinimize: Iter:   0  G: -371.053833869568791  |grad|_K:  1.685e-06  alpha:  1.000e+00
	Linear fluid (dielectric constant: 78.4, screening length: 8.12261 Bohr) occupying 0.719352 of unit cell:	Completed after 22 iterations at t[s]:    191.08
	Linear fluid (dielectric constant: 78.4, screening length: 8.12261 Bohr) occupying 0.712580 of unit cell:	Completed after 21 iterations at t[s]:    246.49
	FillingsUpdate:  mu: -0.145500000  nElectrons: 232.000694  magneticMoment: [ Abs: 0.00000  Tot: -0.00000 ]
	SubspaceRotationAdjust: set factor to 0.528
ElecMinimize: Iter:   1  G: -371.053846948740727  |grad|_K:  1.677e-06  alpha:  1.058e-02  linmin: -2.351e-03  t[s]:    304.19
	Linear fluid (dielectric constant: 78.4, screening length: 8.12261 Bohr) occupying 0.712585 of unit cell:	Completed after 2 iterations at t[s]:    354.85
ElecMinimize: 	Wrong curvature in test step, increasing alphaT to 3.173797e-02.
	Linear fluid (dielectric constant: 78.4, screening length: 8.12261 Bohr) occupying 0.712585 of unit cell:	Completed after 0 iterations at t[s]:    385.73
	FillingsUpdate:  mu: -0.145500000  nElectrons: 232.002160  magneticMoment: [ Abs: 0.00000  Tot: -0.00000 ]
	SubspaceRotationAdjust: set factor to 0.289
ElecMinimize: Iter:   2  G: -371.053873952841911  |grad|_K:  1.291e-06  alpha: -1.323e-01  linmin: -2.674e-03  t[s]:    444.55
	Linear fluid (dielectric constant: 78.4, screening length: 8.12261 Bohr) occupying 0.765310 of unit cell:	Completed after 31 iterations at t[s]:    515.39
	Linear fluid (dielectric constant: 78.4, screening length: 8.12261 Bohr) occupying 0.712585 of unit cell:	Completed after 24 iterations at t[s]:    574.31
	FillingsUpdate:  mu: -0.145500000  nElectrons: 232.002347  magneticMoment: [ Abs: 0.00000  Tot: -0.00000 ]
	SubspaceRotationAdjust: set factor to 0.168
ElecMinimize: Iter:   3  G: -371.053877379778271  |grad|_K:  9.920e-07  alpha:  1.464e-03  linmin: -2.770e-03  t[s]:    632.67
	Linear fluid (dielectric constant: 78.4, screening length: 8.12261 Bohr) occupying 0.712585 of unit cell:	Completed after 0 iterations at t[s]:    681.94
ElecMinimize: 	Wrong curvature in test step, increasing alphaT to 4.391886e-03.
	Linear fluid (dielectric constant: 78.4, screening length: 8.12261 Bohr) occupying 0.712585 of unit cell:	Completed after 0 iterations at t[s]:    710.77
	FillingsUpdate:  mu: -0.145500000  nElectrons: 232.002492  magneticMoment: [ Abs: 0.00000  Tot: -0.00000 ]
	SubspaceRotationAdjust: set factor to 0.108
	SubspaceRotationAdjust: resetting CG because factor has changed by 0.107504
	Linear fluid (dielectric constant: 78.4, screening length: 8.12261 Bohr) occupying 0.712585 of unit cell:	Completed after 0 iterations at t[s]:    791.96
ElecMinimize: 	State modified externally: resetting search direction.
ElecMinimize: Iter:   4  G: -371.053880073890753  |grad|_K:  6.763e-07  alpha: -1.027e-01
	Linear fluid (dielectric constant: 78.4, screening length: 8.12261 Bohr) occupying 0.712643 of unit cell:	Completed after 10 iterations at t[s]:    906.39
ElecMinimize: 	Wrong curvature in test step, increasing alphaT to 3.000000e+00.
	Linear fluid (dielectric constant: 78.4, screening length: 8.12261 Bohr) occupying 0.712643 of unit cell:	Completed after 0 iterations at t[s]:    934.41
	FillingsUpdate:  mu: -0.145500000  nElectrons: 232.020695  magneticMoment: [ Abs: 0.00000  Tot: -0.00000 ]
	SubspaceRotationAdjust: set factor to 0.0578
ElecMinimize: Iter:   5  G: -371.054177678355188  |grad|_K:  1.061e-06  alpha: -1.015e+00  linmin: -1.170e-02  t[s]:    992.34
	Linear fluid (dielectric constant: 78.4, screening length: 8.12261 Bohr) occupying 0.713913 of unit cell:	Completed after 17 iterations at t[s]:   1054.13
	Linear fluid (dielectric constant: 78.4, screening length: 8.12261 Bohr) occupying 0.714026 of unit cell:	Completed after 11 iterations at t[s]:   1103.39
	FillingsUpdate:  mu: -0.145500000  nElectrons: 232.450613  magneticMoment: [ Abs: 0.00000  Tot: -0.00000 ]
	SubspaceRotationAdjust: set factor to 0.0556
ElecMinimize: Iter:   6  G: -371.054860840422350  |grad|_K:  3.519e-06  alpha:  1.740e+00  linmin:  1.074e-03  t[s]:   1161.61
ElecMinimize: 	Bad step direction: g.d > 0.
ElecMinimize: 	Undoing step.
	Linear fluid (dielectric constant: 78.4, screening length: 8.12261 Bohr) occupying 0.714026 of unit cell:	Completed after 0 iterations at t[s]:   1211.09
ElecMinimize: 	Step failed: resetting search direction.
	FillingsUpdate:  mu: -0.145500000  nElectrons: 232.450613  magneticMoment: [ Abs: 0.00000  Tot: -0.00000 ]
	SubspaceRotationAdjust: set factor to 0.0652
ElecMinimize: Iter:   7  G: -371.054860840425533  |grad|_K:  3.508e-06  alpha:  0.000e+00
	Linear fluid (dielectric constant: 78.4, screening length: 8.12261 Bohr) occupying 0.713223 of unit cell:	Completed after 17 iterations at t[s]:   1330.51
	Linear fluid (dielectric constant: 78.4, screening length: 8.12261 Bohr) occupying 0.713722 of unit cell:	Completed after 17 iterations at t[s]:   1384.02
	FillingsUpdate:  mu: -0.145500000  nElectrons: 232.446728  magneticMoment: [ Abs: 0.00000  Tot: -0.00000 ]
	SubspaceRotationAdjust: set factor to 0.0779
ElecMinimize: Iter:   8  G: -371.056492068704188  |grad|_K:  1.671e-06  alpha:  6.271e-01  linmin:  9.487e-04  t[s]:   1442.39
	Linear fluid (dielectric constant: 78.4, screening length: 8.12261 Bohr) occupying 0.713487 of unit cell:	Completed after 13 iterations at t[s]:   1501.07
	Linear fluid (dielectric constant: 78.4, screening length: 8.12261 Bohr) occupying 0.713541 of unit cell:	Completed after 7 iterations at t[s]:   1547.24
	FillingsUpdate:  mu: -0.145500000  nElectrons: 232.445645  magneticMoment: [ Abs: 0.00000  Tot: -0.00000 ]
	SubspaceRotationAdjust: set factor to 0.0966
ElecMinimize: Iter:   9  G: -371.056780725039971  |grad|_K:  9.676e-07  alpha:  4.831e-01  linmin:  9.647e-08  t[s]:   1605.23
	Linear fluid (dielectric constant: 78.4, screening length: 8.12261 Bohr) occupying 0.713407 of unit cell:	Completed after 8 iterations at t[s]:   1660.95
	Linear fluid (dielectric constant: 78.4, screening length: 8.12261 Bohr) occupying 0.713302 of unit cell:	Completed after 8 iterations at t[s]:   1708.24
	FillingsUpdate:  mu: -0.145500000  nElectrons: 232.444259  magneticMoment: [ Abs: 0.00000  Tot: -0.00000 ]
	SubspaceRotationAdjust: set factor to 0.132
ElecMinimize: Iter:  10  G: -371.056958736304409  |grad|_K:  6.364e-07  alpha:  8.673e-01  linmin: -1.565e-04  t[s]:   1766.49
	Linear fluid (dielectric constant: 78.4, screening length: 8.12261 Bohr) occupying 0.713193 of unit cell:	Completed after 8 iterations at t[s]:   1822.07
	Linear fluid (dielectric constant: 78.4, screening length: 8.12261 Bohr) occupying 0.713174 of unit cell:	Completed after 3 iterations at t[s]:   1865.79
	FillingsUpdate:  mu: -0.145500000  nElectrons: 232.442856  magneticMoment: [ Abs: 0.00000  Tot: -0.00000 ]
	SubspaceRotationAdjust: set factor to 0.166
ElecMinimize: Iter:  11  G: -371.057049899220829  |grad|_K:  4.941e-07  alpha:  1.018e+00  linmin: -5.047e-05  t[s]:   1923.33
	Linear fluid (dielectric constant: 78.4, screening length: 8.12261 Bohr) occupying 0.713158 of unit cell:	Completed after 8 iterations at t[s]:   1979.06
	Linear fluid (dielectric constant: 78.4, screening length: 8.12261 Bohr) occupying 0.713160 of unit cell:	Completed after 2 iterations at t[s]:   2022.49
	FillingsUpdate:  mu: -0.145500000  nElectrons: 232.440576  magneticMoment: [ Abs: 0.00000  Tot: -0.00000 ]
	SubspaceRotationAdjust: set factor to 0.195
ElecMinimize: Iter:  12  G: -371.057098272147357  |grad|_K:  4.948e-07  alpha:  9.025e-01  linmin: -2.246e-06  t[s]:   2080.26
	Linear fluid (dielectric constant: 78.4, screening length: 8.12261 Bohr) occupying 0.713198 of unit cell:	Completed after 8 iterations at t[s]:   2136.21
	Linear fluid (dielectric constant: 78.4, screening length: 8.12261 Bohr) occupying 0.713190 of unit cell:	Completed after 3 iterations at t[s]:   2180.01
	FillingsUpdate:  mu: -0.145500000  nElectrons: 232.435891  magneticMoment: [ Abs: 0.00000  Tot: -0.00000 ]
	SubspaceRotationAdjust: set factor to 0.227
ElecMinimize: Iter:  13  G: -371.057133233433490  |grad|_K:  3.824e-07  alpha:  6.481e-01  linmin:  7.655e-06  t[s]:   2237.65
	Linear fluid (dielectric constant: 78.4, screening length: 8.12261 Bohr) occupying 0.713234 of unit cell:	Completed after 4 iterations at t[s]:   2290.34
	Linear fluid (dielectric constant: 78.4, screening length: 8.12261 Bohr) occupying 0.713242 of unit cell:	Completed after 3 iterations at t[s]:   2334.41
	FillingsUpdate:  mu: -0.145500000  nElectrons: 232.427075  magneticMoment: [ Abs: 0.00000  Tot: -0.00000 ]
	SubspaceRotationAdjust: set factor to 0.279
ElecMinimize: Iter:  14  G: -371.057158139076478  |grad|_K:  2.776e-07  alpha:  7.947e-01  linmin:  1.567e-04  t[s]:   2392.17
	Linear fluid (dielectric constant: 78.4, screening length: 8.12261 Bohr) occupying 0.713277 of unit cell:	Completed after 7 iterations at t[s]:   2447.51
	Linear fluid (dielectric constant: 78.4, screening length: 8.12261 Bohr) occupying 0.713267 of unit cell:	Completed after 2 iterations at t[s]:   2490.88
	FillingsUpdate:  mu: -0.145500000  nElectrons: 232.421827  magneticMoment: [ Abs: 0.00000  Tot: -0.00000 ]
	SubspaceRotationAdjust: set factor to 0.308
ElecMinimize: Iter:  15  G: -371.057166915956600  |grad|_K:  1.937e-07  alpha:  5.482e-01  linmin:  9.722e-06  t[s]:   2548.61
	Linear fluid (dielectric constant: 78.4, screening length: 8.12261 Bohr) occupying 0.713288 of unit cell:	Completed after 3 iterations at t[s]:   2600.87
	Linear fluid (dielectric constant: 78.4, screening length: 8.12261 Bohr) occupying 0.713292 of unit cell:	Completed after 0 iterations at t[s]:   2642.22
	FillingsUpdate:  mu: -0.145500000  nElectrons: 232.419226  magneticMoment: [ Abs: 0.00000  Tot: -0.00000 ]
	SubspaceRotationAdjust: set factor to 0.376
ElecMinimize: Iter:  16  G: -371.057172200708351  |grad|_K:  1.384e-07  alpha:  6.465e-01  linmin: -7.277e-05  t[s]:   2700.12
	Linear fluid (dielectric constant: 78.4, screening length: 8.12261 Bohr) occupying 0.713312 of unit cell:	Completed after 2 iterations at t[s]:   2750.61
	Linear fluid (dielectric constant: 78.4, screening length: 8.12261 Bohr) occupying 0.713310 of unit cell:	Completed after 0 iterations at t[s]:   2791.18
	FillingsUpdate:  mu: -0.145500000  nElectrons: 232.419494  magneticMoment: [ Abs: 0.00000  Tot: -0.00000 ]
	SubspaceRotationAdjust: set factor to 0.464
ElecMinimize: Iter:  17  G: -371.057174686863391  |grad|_K:  1.064e-07  alpha:  5.885e-01  linmin:  9.204e-06  t[s]:   2848.83
	Linear fluid (dielectric constant: 78.4, screening length: 8.12261 Bohr) occupying 0.713322 of unit cell:	Completed after 2 iterations at t[s]:   2899.05
	Linear fluid (dielectric constant: 78.4, screening length: 8.12261 Bohr) occupying 0.713321 of unit cell:	Completed after 0 iterations at t[s]:   2939.96
	FillingsUpdate:  mu: -0.145500000  nElectrons: 232.420998  magneticMoment: [ Abs: 0.00000  Tot: -0.00000 ]
	SubspaceRotationAdjust: set factor to 0.551
ElecMinimize: Iter:  18  G: -371.057176110810531  |grad|_K:  8.634e-08  alpha:  5.784e-01  linmin: -1.619e-05  t[s]:   2997.93
	Linear fluid (dielectric constant: 78.4, screening length: 8.12261 Bohr) occupying 0.713324 of unit cell:	Completed after 3 iterations at t[s]:   3050.15
	Linear fluid (dielectric constant: 78.4, screening length: 8.12261 Bohr) occupying 0.713323 of unit cell:	Completed after 0 iterations at t[s]:   3091.47
	FillingsUpdate:  mu: -0.145500000  nElectrons: 232.422401  magneticMoment: [ Abs: 0.00000  Tot: -0.00000 ]
	SubspaceRotationAdjust: set factor to 0.53
ElecMinimize: Iter:  19  G: -371.057176841590945  |grad|_K:  6.601e-08  alpha:  4.453e-01  linmin:  3.255e-04  t[s]:   3149.14
	Linear fluid (dielectric constant: 78.4, screening length: 8.12261 Bohr) occupying 0.713322 of unit cell:	Completed after 2 iterations at t[s]:   3200.07
	Linear fluid (dielectric constant: 78.4, screening length: 8.12261 Bohr) occupying 0.713322 of unit cell:	Completed after 0 iterations at t[s]:   3241.49
	FillingsUpdate:  mu: -0.145500000  nElectrons: 232.423465  magneticMoment: [ Abs: 0.00000  Tot: -0.00000 ]
	SubspaceRotationAdjust: set factor to 0.445
ElecMinimize: Iter:  20  G: -371.057177146590618  |grad|_K:  5.113e-08  alpha:  3.623e-01  linmin: -3.541e-04  t[s]:   3299.17
	Linear fluid (dielectric constant: 78.4, screening length: 8.12261 Bohr) occupying 0.713318 of unit cell:	Completed after 2 iterations at t[s]:   3350.56
	Linear fluid (dielectric constant: 78.4, screening length: 8.12261 Bohr) occupying 0.713317 of unit cell:	Completed after 0 iterations at t[s]:   3391.53
	FillingsUpdate:  mu: -0.145500000  nElectrons: 232.424123  magneticMoment: [ Abs: 0.00000  Tot: -0.00000 ]
	SubspaceRotationAdjust: set factor to 0.461
ElecMinimize: Iter:  21  G: -371.057177402323418  |grad|_K:  3.323e-08  alpha:  4.039e-01  linmin: -8.693e-04  t[s]:   3449.39
	Linear fluid (dielectric constant: 78.4, screening length: 8.12261 Bohr) occupying 0.713313 of unit cell:	Completed after 0 iterations at t[s]:   3498.74
	Linear fluid (dielectric constant: 78.4, screening length: 8.12261 Bohr) occupying 0.713310 of unit cell:	Completed after 0 iterations at t[s]:   3540.44
	FillingsUpdate:  mu: -0.145500000  nElectrons: 232.424447  magneticMoment: [ Abs: 0.00000  Tot: -0.00000 ]
	SubspaceRotationAdjust: set factor to 0.495
ElecMinimize: Iter:  22  G: -371.057177579734571  |grad|_K:  2.677e-08  alpha:  6.594e-01  linmin:  6.586e-05  t[s]:   3598.17
	Linear fluid (dielectric constant: 78.4, screening length: 8.12261 Bohr) occupying 0.713303 of unit cell:	Completed after 0 iterations at t[s]:   3647.42
	Linear fluid (dielectric constant: 78.4, screening length: 8.12261 Bohr) occupying 0.713304 of unit cell:	Completed after 0 iterations at t[s]:   3688.84
	FillingsUpdate:  mu: -0.145500000  nElectrons: 232.424405  magneticMoment: [ Abs: 0.00000  Tot: +0.00000 ]
	SubspaceRotationAdjust: set factor to 0.621
ElecMinimize: Iter:  23  G: -371.057177663976290  |grad|_K:  1.884e-08  alpha:  5.459e-01  linmin: -4.006e-06  t[s]:   3746.62
	Linear fluid (dielectric constant: 78.4, screening length: 8.12261 Bohr) occupying 0.713302 of unit cell:	Completed after 0 iterations at t[s]:   3796.60
	Linear fluid (dielectric constant: 78.4, screening length: 8.12261 Bohr) occupying 0.713302 of unit cell:	Completed after 0 iterations at t[s]:   3837.51
	FillingsUpdate:  mu: -0.145500000  nElectrons: 232.424183  magneticMoment: [ Abs: 0.00000  Tot: +0.00000 ]
	SubspaceRotationAdjust: set factor to 0.809
	SubspaceRotationAdjust: resetting CG because factor has changed by 7.52087
	Linear fluid (dielectric constant: 78.4, screening length: 8.12261 Bohr) occupying 0.713302 of unit cell:	Completed after 0 iterations at t[s]:   3919.01
ElecMinimize: 	State modified externally: resetting search direction.
ElecMinimize: Iter:  24  G: -371.057177700447824  |grad|_K:  1.449e-08  alpha:  4.909e-01
ElecMinimize: Converged (|Delta G|<1.000000e-07 for 2 iters).
Setting wave functions to eigenvectors of Hamiltonian
Converging empty states (this may take a while): |deigs|: 1.919e-04

Computing DFT-D3 correction:
# coordination-number C 3.301 3.322 3.335 3.333 3.313 3.290 3.326 3.579 3.331 3.314 3.304 3.333 3.306 3.301 3.326 3.617 3.265 3.300 3.319 3.335 3.328 3.303 3.302 3.328 3.336 3.319 3.300 3.268 3.570 3.326 3.302 3.307 3.325 3.303 3.314 3.331 3.618 3.327 3.289 3.313 3.333 3.335 3.322 3.301 3.000
# coordination-number N 3.178 3.178 3.176 3.183
# coordination-number Ti 7.480
# coordination-number O 2.000 1.051 1.982
# coordination-number H 1.002 0.993
# diagonal-C6 C 24.28 24.06 23.92 23.94 24.16 24.37 24.02 20.54 23.96 24.14 24.25 23.94 24.22 24.27 24.02 20.07 24.59 24.28 24.09 23.92 23.99 24.25 24.26 24.00 23.91 24.09 24.28 24.57 20.65 24.02 24.27 24.21 24.03 24.26 24.15 23.97 20.06 24.01 24.38 24.16 23.94 23.92 24.06 24.27 25.67
# diagonal-C6 N 15.60 15.60 15.60 15.60
# diagonal-C6 Ti 321.59
# diagonal-C6 O 10.41 12.77 10.41
# diagonal-C6 H 3.09 3.09
EvdW_6 =   -0.044039
EvdW_8 =   -0.033561

# Ionic positions in cartesian coordinates:
ion C  -0.007454488017512   0.085058557213497  43.322684109058137 1
ion C  21.041813473707297   4.043158592672630  43.293615925327778 1
ion C  18.693756981719563   8.049291605328781  43.188745361144392 1
ion C  -7.052932005228888  12.050308504330239  43.177118573318801 1
ion C  -9.378103175351090  16.065044087184937  43.270595457637270 1
ion C   4.677932238683261   0.197959183391724   0.089570214594117 1
ion C   2.286971612535631   4.207821901715295   0.173720395357744 1
ion C  -0.127616687411839   8.029273699567387   0.111685110776187 1
ion C  -2.446399128867260  12.042050388397476  43.246505528991072 1
ion C  -4.735287212441095  16.071898021057308  43.259865890149889 1
ion C   9.369927168153417   0.086059460134655  43.284152452668984 1
ion C   7.084852571309279   4.194520245366925   0.122986207556251 1
ion C  -0.043807164571685  15.974036396341351   0.058515018640957 1
ion C   2.340762953591250  19.928008870319260  43.292525257577871 1
ion C  11.756183658555210   4.028836378857918  43.241332549715572 1
ion C   9.475355358899051   8.016197151115202   0.049272115406689 1
ion C   4.664407827265117  15.828248205552716   0.166098928965415 1
ion C   6.991579724256660  19.932848315583144  43.312704430047042 1
ion C  16.399030536063243   4.014850400743537  43.222327326314058 1
ion C  14.092883093682790   8.041234040356068  43.170462040370694 1
ion C  11.773616372291636  12.043372548205681  43.248792884274486 1
ion C   9.368678496173354  15.977190307137421   0.073400386450924 1
ion C  -0.020968393432910   2.772785100642380   0.086098070862124 1
ion C  -2.428374102935956   6.701712520027560  43.267797612552798 1
ion C  -4.751256868635397  10.702034003796067  43.181448128481470 1
ion C  -7.054927232618019  14.728711917393927  43.229964034942697 1
ion C  -9.379765422932099  18.753914858998687  43.319169898491211 1
ion C   4.680070706147774   2.916183531179954   0.157515623715127 1
ion C  -0.137695026136087  10.729457291690155   0.103610552768029 1
ion C  -2.412912446484738  14.715465964940591  43.269686423164700 1
ion C  -4.728702914534346  18.758407793544436  43.302001585355121 1
ion C   9.388959389210990   2.767615343052276   0.027103769287791 1
ion C   2.260353664412817  14.539833423239804   0.167072667023048 1
ion C  -0.023160487186331  18.656016256015313  43.288070587493436 1
ion C  14.079392487298104   2.672788033968485  43.242687730579128 1
ion C  11.786024012025738   6.703234859879848  43.219819777676250 1
ion C   9.470748682497607  10.718939753123333   0.073297687935244 1
ion C   7.060843110208648  14.545263376899708   0.157614826142509 1
ion C   4.666897505734745  18.546502068174245   0.085083239784505 1
ion C  18.723180202386057   2.680045967928490  43.268579166243669 1
ion C  16.396211587896413   6.693141191446246  43.174840058490702 1
ion C  14.085995974181412  10.712179459545748  43.178755992264655 1
ion C  11.739691096029050  14.720564852896530  43.282413163553805 1
ion C   9.355068668730482  18.664046083955764  43.318392177672429 1
ion C   4.940150743349235   8.321998212487099   5.404308644780841 1
ion N   2.127690873922018  11.956939883092298   0.265155575697462 1
ion N   7.190462749933648  11.947040246963894   0.223432132143906 1
ion N   2.160047386262889   6.810966067051792   0.265642154305215 1
ion N   7.207362245192918   6.776468633931046   0.194564316137826 1
ion Ti   4.719474706942229   9.358375321921292   1.684851991477319 1
ion O   4.086255697753693  10.658716764666249   5.147549773704521 1
ion O   5.296576215002678   7.184803072111348   7.424171985909272 1
ion O   7.227938895247406   2.447641279708594   6.731854627330509 1
ion H   6.445155702770835   4.168269413874198   6.890447648357788 1
ion H   5.796869386761146   1.317088591279708   6.398658211331263 1

# Forces in Cartesian coordinates:
force C   0.000104459601714   0.002152567842098  -0.000020136845258 1
force C  -0.001938107554394   0.002262781013238  -0.000028006913607 1
force C   0.000267597364666   0.000166101971947  -0.000004956239491 1
force C  -0.000023576810281   0.001225405750220   0.000054248313173 1
force C  -0.000779529660012   0.000382545365064  -0.000005418859103 1
force C   0.000165686011804  -0.001284841357479  -0.000028628958038 1
force C  -0.000323289256380   0.000102301241948  -0.000278579267855 1
force C  -0.001074367085515   0.005759154545588  -0.000363833171227 1
force C  -0.000089770993240   0.002029625370700   0.000232153109009 1
force C   0.001096904595550   0.000342630480280   0.000012716135136 1
force C   0.000091179913538   0.002396868302590  -0.000083301845559 1
force C   0.000409538047641  -0.000125776705024  -0.000179552175608 1
force C   0.002332005942187   0.001838540605233   0.000075222925552 1
force C   0.001235870829496   0.000919941523912   0.000132961709543 1
force C   0.002377666145374   0.002208613752449  -0.000134685004967 1
force C   0.001322876359912   0.005613902076157  -0.000218422854908 1
force C  -0.000024158859358  -0.000249164552218  -0.000089665553241 1
force C  -0.000942071947826   0.001054316740502   0.000079235076509 1
force C   0.000168068839266   0.001294814616698   0.000031433406603 1
force C  -0.000035059234650   0.000181253735948   0.000007829796847 1
force C   0.001028644324993   0.002378595383636   0.000306106364219 1
force C  -0.001750477211337   0.002343775262570   0.000041009428771 1
force C   0.001960942789022  -0.001842863782528  -0.000033447688989 1
force C  -0.000610627677483  -0.002268103085261   0.000165098237286 1
force C   0.000189213959933  -0.000113039457745   0.000073314510779 1
force C  -0.000046076641899  -0.000970216832199   0.000046135110769 1
force C   0.000885430169811  -0.000811381710051   0.000006792010921 1
force C   0.000064862449061   0.000219357560930  -0.000200728714205 1
force C  -0.001608786281451  -0.006090462060675  -0.000354003064048 1
force C  -0.002225681418726  -0.002081880691152  -0.000022771922133 1
force C  -0.001285131630077  -0.000929218801363  -0.000002221445165 1
force C  -0.002329103182189  -0.002440659795596  -0.000087152043271 1
force C  -0.000687699900731   0.000030297313040  -0.000289745257058 1
force C  -0.000181477180946  -0.002206443713155   0.000118268332068 1
force C  -0.001298777359304  -0.000496299949673   0.000002479612953 1
force C   0.000563455338527  -0.002427803962944   0.000130622039848 1
force C   0.001303869802596  -0.006004310870843  -0.000317588185265 1
force C   0.000393164067803  -0.000172974954818  -0.000276696027115 1
force C  -0.000235777666725   0.001342715254496   0.000048739390082 1
force C   0.000739656344433  -0.000589661455246   0.000097384107292 1
force C  -0.000186294644383  -0.001248098703152  -0.000006644584148 1
force C  -0.000370201187136   0.000111416349728   0.000095233953621 1
force C   0.001740302656859  -0.002389333578498  -0.000048693044134 1
force C  -0.000192136291138  -0.002313632524501   0.000020178411865 1
force C   0.000359056614838   0.000707893851527  -0.004666936248174 1
force N   0.004680533280703   0.000451566729733   0.000298858864393 1
force N  -0.003796258895782   0.000802122507520  -0.000034638765465 1
force N   0.004057363702932  -0.000246863844314   0.000655169708222 1
force N  -0.003886050894450  -0.000219930420653  -0.000369072273204 1
force Ti  -0.000035402994378  -0.001020666791242  -0.003687581153808 1
force O  -0.000502482153456   0.000341950314114   0.004671934920838 1
force O   0.000026932888910  -0.000407241715394   0.004180432073624 1
force O  -0.000595025885201  -0.000227448172216   0.000420124735928 1
force H  -0.000170909447838   0.000200334845762  -0.000874421772254 1
force H   0.000555786455412   0.000247278748276  -0.000465986998942 1

# Energy components:
   A_diel =       -0.0482511002588065
   Eewald =     1710.4542155914825798
       EH =     2039.1886714067763933
     Eloc =    -4304.9598656777507131
      Enl =       54.7812244028913966
     EvdW =       -0.0776003141787401
      Exc =     -113.2874468583915188
 Exc_core =        3.3745483994708545
       KE =      205.7045184925123351
  MuShift =       -0.0048277120720282
-------------------------------------
     Etot =     -404.8748133695185061
       TS =        0.0000829483443647
-------------------------------------
        F =     -404.8748963178628628
      muN =      -33.8177186174150179
-------------------------------------
        G =     -371.0571777004478236


Dumping 'jdft.fillings' ... done
Dumping 'jdft.wfns' ... done
Dumping 'jdft.fluidState' ... done
Dumping 'jdft.ionpos' ... done
Dumping 'jdft.lattice' ... done
Dumping 'jdft.eigenvals' ... done
Dumping 'jdft.eigStats' ... 
	eMin: -2.280362 at state 0 ( [ +0.000000 +0.000000 +0.000000 ] spin 1 )
	HOMO: -0.148516 at state 13 ( [ +0.333333 +0.333333 +0.000000 ] spin -1 )
	mu  : -0.145500
	LUMO: -0.134995 at state 0 ( [ +0.000000 +0.000000 +0.000000 ] spin 1 )
	eMax: +0.018179 at state 0 ( [ +0.000000 +0.000000 +0.000000 ] spin 1 )
	HOMO-LUMO gap: +0.013521
	Optical gap  : +0.015326 at state 4 ( [ +0.333333 +0.333333 +0.000000 ] spin 1 )
Dumping 'jdft.Ecomponents' ... done
IonicMinimize: Iter:   0  G: -371.057177700447824  |grad|_K:  1.624e-03  t[s]:   4509.55

#--- Lowdin population analysis ---
# oxidation-state C +0.042 +0.051 +0.043 +0.049 +0.040 +0.041 +0.170 +0.128 +0.032 +0.040 +0.042 +0.180 +0.029 +0.047 +0.052 +0.126 -0.002 +0.047 +0.039 +0.043 +0.033 +0.029 +0.028 +0.032 +0.042 +0.037 +0.045 -0.001 +0.131 +0.052 +0.043 +0.030 +0.174 +0.043 +0.042 +0.033 +0.124 +0.171 +0.046 +0.041 +0.050 +0.043 +0.052 +0.043 +0.224
# magnetic-moments C +0.000 -0.000 -0.000 +0.000 -0.000 +0.000 +0.000 +0.000 -0.000 -0.000 -0.000 +0.000 -0.000 -0.000 -0.000 +0.000 -0.000 -0.000 -0.000 -0.000 +0.000 -0.000 -0.000 -0.000 +0.000 -0.000 +0.000 -0.000 -0.000 +0.000 -0.000 +0.000 +0.000 +0.000 +0.000 +0.000 +0.000 +0.000 +0.000 +0.000 +0.000 -0.000 +0.000 +0.000 -0.000
# oxidation-state N -0.311 -0.317 -0.309 -0.305
# magnetic-moments N -0.000 -0.000 -0.000 -0.000
# oxidation-state Ti +1.443
# magnetic-moments Ti +0.000
# oxidation-state O -0.483 -0.474 -0.817
# magnetic-moments O +0.000 -0.000 +0.000
# oxidation-state H +0.393 +0.439
# magnetic-moments H -0.000 +0.000


Computing DFT-D3 correction:
# coordination-number C 3.300 3.321 3.335 3.333 3.313 3.290 3.325 3.579 3.331 3.314 3.303 3.332 3.305 3.301 3.325 3.618 3.266 3.301 3.320 3.335 3.328 3.303 3.301 3.328 3.336 3.320 3.301 3.268 3.570 3.325 3.302 3.307 3.324 3.302 3.314 3.330 3.619 3.326 3.289 3.313 3.333 3.335 3.322 3.301 3.001
# coordination-number N 3.178 3.178 3.176 3.183
# coordination-number Ti 7.484
# coordination-number O 1.999 1.051 1.983
# coordination-number H 1.002 0.993
# diagonal-C6 C 24.28 24.07 23.92 23.94 24.16 24.37 24.03 20.53 23.96 24.14 24.25 23.95 24.23 24.27 24.03 20.07 24.58 24.28 24.08 23.91 24.00 24.26 24.27 24.00 23.91 24.08 24.28 24.56 20.65 24.03 24.26 24.22 24.04 24.26 24.15 23.97 20.06 24.02 24.38 24.16 23.94 23.91 24.06 24.28 25.67
# diagonal-C6 N 15.60 15.60 15.60 15.60
# diagonal-C6 Ti 321.59
# diagonal-C6 O 10.41 12.77 10.41
# diagonal-C6 H 3.09 3.09
EvdW_6 =   -0.044038
EvdW_8 =   -0.033563
Shifting auxilliary hamiltonian by -0.000024 to set nElectrons=232.424183

-------- Electronic minimization -----------
	Linear fluid (dielectric constant: 78.4, screening length: 8.12261 Bohr) occupying 0.713334 of unit cell:	Completed after 5 iterations at t[s]:   4572.96
	FillingsUpdate:  mu: -0.145500000  nElectrons: 232.424183  magneticMoment: [ Abs: 0.00000  Tot: +0.00000 ]
ElecMinimize: Iter:   0  G: -371.057254937540620  |grad|_K:  9.299e-07  alpha:  1.000e+00
	Linear fluid (dielectric constant: 78.4, screening length: 8.12261 Bohr) occupying 0.713394 of unit cell:	Completed after 8 iterations at t[s]:   4694.29
	Linear fluid (dielectric constant: 78.4, screening length: 8.12261 Bohr) occupying 0.713382 of unit cell:	Completed after 3 iterations at t[s]:   4737.58
	FillingsUpdate:  mu: -0.145500000  nElectrons: 232.433385  magneticMoment: [ Abs: 0.00000  Tot: +0.00000 ]
	SubspaceRotationAdjust: set factor to 0.909
ElecMinimize: Iter:   1  G: -371.057393637346991  |grad|_K:  4.297e-07  alpha:  7.399e-01  linmin: -3.592e-05  t[s]:   4795.18
	Linear fluid (dielectric constant: 78.4, screening length: 8.12261 Bohr) occupying 0.713390 of unit cell:	Completed after 8 iterations at t[s]:   4849.94
	Linear fluid (dielectric constant: 78.4, screening length: 8.12261 Bohr) occupying 0.713386 of unit cell:	Completed after 6 iterations at t[s]:   4895.44
	FillingsUpdate:  mu: -0.145500000  nElectrons: 232.433727  magneticMoment: [ Abs: 0.00000  Tot: +0.00000 ]
	SubspaceRotationAdjust: set factor to 0.671
ElecMinimize: Iter:   2  G: -371.057408948163243  |grad|_K:  3.674e-07  alpha:  3.848e-01  linmin:  3.452e-05  t[s]:   4952.83
	Linear fluid (dielectric constant: 78.4, screening length: 8.12261 Bohr) occupying 0.713400 of unit cell:	Completed after 4 iterations at t[s]:   5005.46
	Linear fluid (dielectric constant: 78.4, screening length: 8.12261 Bohr) occupying 0.713398 of unit cell:	Completed after 2 iterations at t[s]:   5048.27
	FillingsUpdate:  mu: -0.145500000  nElectrons: 232.434672  magneticMoment: [ Abs: 0.00000  Tot: +0.00000 ]
	SubspaceRotationAdjust: set factor to 0.448
ElecMinimize: Iter:   3  G: -371.057418536196167  |grad|_K:  1.772e-07  alpha:  3.277e-01  linmin:  5.033e-06  t[s]:   5105.99
	Linear fluid (dielectric constant: 78.4, screening length: 8.12261 Bohr) occupying 0.713398 of unit cell:	Completed after 2 iterations at t[s]:   5157.23
	Linear fluid (dielectric constant: 78.4, screening length: 8.12261 Bohr) occupying 0.713399 of unit cell:	Completed after 2 iterations at t[s]:   5200.23
	FillingsUpdate:  mu: -0.145500000  nElectrons: 232.434980  magneticMoment: [ Abs: 0.00000  Tot: +0.00000 ]
	SubspaceRotationAdjust: set factor to 0.417
ElecMinimize: Iter:   4  G: -371.057422341155473  |grad|_K:  8.349e-08  alpha:  5.567e-01  linmin: -1.928e-05  t[s]:   5258.00
	Linear fluid (dielectric constant: 78.4, screening length: 8.12261 Bohr) occupying 0.713398 of unit cell:	Completed after 2 iterations at t[s]:   5309.32
	Linear fluid (dielectric constant: 78.4, screening length: 8.12261 Bohr) occupying 0.713398 of unit cell:	Completed after 0 iterations at t[s]:   5350.29
	FillingsUpdate:  mu: -0.145500000  nElectrons: 232.434970  magneticMoment: [ Abs: 0.00000  Tot: +0.00000 ]
	SubspaceRotationAdjust: set factor to 0.46
ElecMinimize: Iter:   5  G: -371.057423415571407  |grad|_K:  4.924e-08  alpha:  6.989e-01  linmin: -1.688e-03  t[s]:   5407.90
	Linear fluid (dielectric constant: 78.4, screening length: 8.12261 Bohr) occupying 0.713397 of unit cell:	Completed after 1 iterations at t[s]:   5458.83
	Linear fluid (dielectric constant: 78.4, screening length: 8.12261 Bohr) occupying 0.713397 of unit cell:	Completed after 0 iterations at t[s]:   5499.63
	FillingsUpdate:  mu: -0.145500000  nElectrons: 232.434878  magneticMoment: [ Abs: 0.00000  Tot: +0.00000 ]
	SubspaceRotationAdjust: set factor to 0.51
ElecMinimize: Iter:   6  G: -371.057423842172057  |grad|_K:  3.664e-08  alpha:  7.636e-01  linmin: -8.145e-04  t[s]:   5557.41
	Linear fluid (dielectric constant: 78.4, screening length: 8.12261 Bohr) occupying 0.713396 of unit cell:	Completed after 2 iterations at t[s]:   5608.78
	Linear fluid (dielectric constant: 78.4, screening length: 8.12261 Bohr) occupying 0.713396 of unit cell:	Completed after 0 iterations at t[s]:   5649.79
	FillingsUpdate:  mu: -0.145500000  nElectrons: 232.434803  magneticMoment: [ Abs: 0.00000  Tot: +0.00000 ]
	SubspaceRotationAdjust: set factor to 0.541
ElecMinimize: Iter:   7  G: -371.057424033900702  |grad|_K:  2.414e-08  alpha:  6.168e-01  linmin:  4.799e-04  t[s]:   5707.34
	Linear fluid (dielectric constant: 78.4, screening length: 8.12261 Bohr) occupying 0.713397 of unit cell:	Completed after 0 iterations at t[s]:   5755.89
	Linear fluid (dielectric constant: 78.4, screening length: 8.12261 Bohr) occupying 0.713397 of unit cell:	Completed after 0 iterations at t[s]:   5796.51
	FillingsUpdate:  mu: -0.145500000  nElectrons: 232.434761  magneticMoment: [ Abs: 0.00000  Tot: +0.00000 ]
	SubspaceRotationAdjust: set factor to 0.596
ElecMinimize: Iter:   8  G: -371.057424128587400  |grad|_K:  1.657e-08  alpha:  7.858e-01  linmin:  1.190e-06  t[s]:   5854.24
	Linear fluid (dielectric constant: 78.4, screening length: 8.12261 Bohr) occupying 0.713398 of unit cell:	Completed after 2 iterations at t[s]:   5905.37
	Linear fluid (dielectric constant: 78.4, screening length: 8.12261 Bohr) occupying 0.713397 of unit cell:	Completed after 0 iterations at t[s]:   5945.99
ElecMinimize: 	Step increased G by 3.790944e-09, reducing alpha to 2.200124e-02.
	Linear fluid (dielectric constant: 78.4, screening length: 8.12261 Bohr) occupying 0.713397 of unit cell:	Completed after 0 iterations at t[s]:   6041.40
ElecMinimize: 	Step increased G by 1.638227e-09, reducing alpha to 2.200124e-03.
	Linear fluid (dielectric constant: 78.4, screening length: 8.12261 Bohr) occupying 0.713397 of unit cell:	Completed after 0 iterations at t[s]:   6135.85
ElecMinimize: 	Step increased G by 1.057913e-09, reducing alpha to 2.200124e-04.
ElecMinimize: 	Step failed to reduce G after 3 attempts. Quitting step.
ElecMinimize: 	Undoing step.
	Linear fluid (dielectric constant: 78.4, screening length: 8.12261 Bohr) occupying 0.713397 of unit cell:	Completed after 0 iterations at t[s]:   6230.20
ElecMinimize: 	Step failed: resetting search direction.
	FillingsUpdate:  mu: -0.145500000  nElectrons: 232.434761  magneticMoment: [ Abs: 0.00000  Tot: +0.00000 ]
	SubspaceRotationAdjust: set factor to 0.551
ElecMinimize: Iter:   9  G: -371.057424127497711  |grad|_K:  2.807e-08  alpha:  2.200e-04
	Linear fluid (dielectric constant: 78.4, screening length: 8.12261 Bohr) occupying 0.713396 of unit cell:	Completed after 2 iterations at t[s]:   6339.10
	Linear fluid (dielectric constant: 78.4, screening length: 8.12261 Bohr) occupying 0.713397 of unit cell:	Completed after 3 iterations at t[s]:   6382.43
ElecMinimize: 	Step increased G by 1.180888e-08, reducing alpha to 2.083781e-02.
	Linear fluid (dielectric constant: 78.4, screening length: 8.12261 Bohr) occupying 0.713397 of unit cell:	Completed after 0 iterations at t[s]:   6476.32
ElecMinimize: 	Step increased G by 3.838522e-09, reducing alpha to 2.083781e-03.
	Linear fluid (dielectric constant: 78.4, screening length: 8.12261 Bohr) occupying 0.713397 of unit cell:	Completed after 0 iterations at t[s]:   6568.99
ElecMinimize: 	Step increased G by 3.716764e-09, reducing alpha to 2.083781e-04.
ElecMinimize: 	Step failed to reduce G after 3 attempts. Quitting step.
ElecMinimize: 	Undoing step.
	Linear fluid (dielectric constant: 78.4, screening length: 8.12261 Bohr) occupying 0.713397 of unit cell:	Completed after 0 iterations at t[s]:   6661.77
ElecMinimize: 	Step failed along negative gradient direction.
ElecMinimize: Probably at roundoff error limit. (Stopping)
Setting wave functions to eigenvectors of Hamiltonian
Converging empty states (this may take a while): |deigs|: 1.184e-06

Computing DFT-D3 correction:
# coordination-number C 3.300 3.321 3.335 3.333 3.313 3.290 3.325 3.579 3.331 3.314 3.303 3.332 3.305 3.301 3.325 3.618 3.266 3.301 3.320 3.335 3.328 3.303 3.301 3.328 3.336 3.320 3.301 3.268 3.570 3.325 3.302 3.307 3.324 3.302 3.314 3.330 3.619 3.326 3.289 3.313 3.333 3.335 3.322 3.301 3.001
# coordination-number N 3.178 3.178 3.176 3.183
# coordination-number Ti 7.484
# coordination-number O 1.999 1.051 1.983
# coordination-number H 1.002 0.993
# diagonal-C6 C 24.28 24.07 23.92 23.94 24.16 24.37 24.03 20.53 23.96 24.14 24.25 23.95 24.23 24.27 24.03 20.07 24.58 24.28 24.08 23.91 24.00 24.26 24.27 24.00 23.91 24.08 24.28 24.56 20.65 24.03 24.26 24.22 24.04 24.26 24.15 23.97 20.06 24.02 24.38 24.16 23.94 23.91 24.06 24.28 25.67
# diagonal-C6 N 15.60 15.60 15.60 15.60
# diagonal-C6 Ti 321.59
# diagonal-C6 O 10.41 12.77 10.41
# diagonal-C6 H 3.09 3.09
EvdW_6 =   -0.044038
EvdW_8 =   -0.033563

# Ionic positions in cartesian coordinates:
ion C  -0.007366333116720   0.087212391427087  43.322685241932703 1
ion C  21.039859061451981   4.045422640057359  43.293609188133999 1
ion C  18.694008274383307   8.049458973672220  43.188761674624722 1
ion C  -7.052971886740091  12.051535176451953  43.177194091351801 1
ion C  -9.378899009712024  16.065427898921488  43.270611308497990 1
ion C   4.678081619994144   0.196675608405736   0.089562855355905 1
ion C   2.286632018578329   4.207925469328736   0.173463085809714 1
ion C  -0.128707359198276   8.035034120484466   0.111342547324786 1
ion C  -2.446505204561421  12.044081280139670  43.246758951819906 1
ion C  -4.734206612546467  16.072241917909079  43.259899876004852 1
ion C   9.370002043366032   0.088457594808736  43.284090420543258 1
ion C   7.085245804655998   4.194395735033392   0.122827925100468 1
ion C  -0.041491463330420  15.975876203318073   0.058611511286334 1
ion C   2.341982519719826  19.928930078214663  43.292679489007242 1
ion C  11.758545019999660   4.031046258981858  43.241219134430430 1
ion C   9.476661930558041   8.021812319562851   0.049074962271606 1
ion C   4.664367363704837  15.828000307371990   0.166030533131999 1
ion C   6.990621347607911  19.933903898695135  43.312804934843378 1
ion C  16.399182300201584   4.016146481731727  43.222380029440487 1
ion C  14.092831729747218   8.041416560463507  43.170491139887368 1
ion C  11.774628711915710  12.045752409960809  43.249120260358531 1
ion C   9.366911714261091  15.979535348771483   0.073462665599521 1
ion C  -0.019023755344810   2.770943503231345   0.086085892892961 1
ion C  -2.429001035314361   6.699445683313791  43.267983980509904 1
ion C  -4.751083959376386  10.701922230709814  43.181542712712080 1
ion C  -7.054989613960840  14.727742966933219  43.230031439773292 1
ion C  -9.378896297463211  18.753104743660128  43.319197960221956 1
ion C   4.680119263895914   2.916404155112376   0.157336164720747 1
ion C  -0.139320117118459  10.723368096000973   0.103277819423806 1
ion C  -2.415154432604385  14.713385350620932  43.269684920962391 1
ion C  -4.730004350865347  18.757479841114566  43.302020633629787 1
ion C   9.386613981327880   2.765175949628172   0.027037886964346 1
ion C   2.259649659811164  14.539864986924339   0.166804191485815 1
ion C  -0.023358269068199  18.653811078673652  43.288210125545326 1
ion C  14.078077405237879   2.672293000390303  43.242711479911904 1
ion C  11.786571162663344   6.700808322288395  43.219971669435921 1
ion C   9.472036247599281  10.712936708623982   0.073001369469804 1
ion C   7.061219969575529  14.545091668316381   0.157359399835219 1
ion C   4.666645423367100  18.547846049800235   0.085153248894412 1
ion C  18.723903554029569   2.679457572844736  43.268697820070784 1
ion C  16.396008988551106   6.691894359114586  43.174854683626378 1
ion C  14.085609468293356  10.712292142266969  43.178872495938101 1
ion C  11.741415093984987  14.718176785689522  43.282385740229500 1
ion C   9.354860227738422  18.661733717802754  43.318433625804118 1
ion C   4.940493495263152   8.322707372710116   5.399662978252493 1
ion N   2.132355102501801  11.957392716193523   0.265475704281681 1
ion N   7.186650186336944  11.947843635842906   0.223418763098266 1
ion N   2.164088445264898   6.810720469578970   0.266318593733262 1
ion N   7.203459889597548   6.776249969881884   0.194216513584447 1
ion Ti   4.719422999246929   9.357355921501542   1.681185680043336 1
ion O   4.085736910899317  10.659059981351854   5.152242978345185 1
ion O   5.296586843190664   7.184397096767446   7.428373687702722 1
ion O   7.227327564661282   2.447415097907869   6.732296021786262 1
ion H   6.444968488622074   4.168471015091452   6.889594496305360 1
ion H   5.797408868515636   1.317337136399476   6.398213494052146 1

# Forces in Cartesian coordinates:
force C   0.000504335462005   0.000125838075764  -0.000032868402888 1
force C   0.000032287120495  -0.000000006098954   0.000042330929901 1
force C   0.000082936295450  -0.000392912275963   0.000019628928717 1
force C  -0.000000768600105   0.000134569076492   0.000037139133522 1
force C   0.000029733672695  -0.000394268811872  -0.000015038692666 1
force C   0.000024881526684  -0.000711779949760  -0.000016877773386 1
force C   0.000461351060969   0.000028698860984  -0.000223557337998 1
force C   0.000163047286944   0.000424572141582  -0.000235917948801 1
force C  -0.000202081803765  -0.000275025927474   0.000220718686682 1
force C  -0.000004150166235  -0.000402500127620   0.000002772487324 1
force C  -0.000587123877126   0.000010918433373  -0.000065931111190 1
force C  -0.000397755257382  -0.000105828092887  -0.000170464558598 1
force C  -0.000018018429120  -0.000103525552480   0.000028169632237 1
force C  -0.000056710148056   0.000158488842159   0.000130867611488 1
force C  -0.000079879027037  -0.000153213216061  -0.000069305914954 1
force C  -0.000070525717754   0.000394382392869  -0.000170154326234 1
force C  -0.000064936642409   0.000436562951772  -0.000119178019750 1
force C  -0.000053540920360   0.000179114831936   0.000090474576702 1
force C  -0.000061483061128  -0.000132622342929   0.000053231705036 1
force C  -0.000119139126027  -0.000354591430496   0.000036205213758 1
force C   0.000369818511548  -0.000184940882403   0.000284592338785 1
force C   0.000033115678345   0.000037817818163   0.000003428873003 1
force C   0.000051888262634   0.000142244241023  -0.000063609029113 1
force C  -0.000294532058845   0.000198759105731   0.000143105627698 1
force C   0.000155007699720   0.000430683920071   0.000089296109017 1
force C   0.000009165888824   0.000186866523761   0.000064116334769 1
force C  -0.000045752634604  -0.000145183019489   0.000012692768479 1
force C   0.000029727515540  -0.000395949355959  -0.000203830542525 1
force C   0.000411638097243  -0.000557440701847  -0.000195553028899 1
force C   0.000143553770200   0.000009747790656   0.000048739870513 1
force C  -0.000047592926085  -0.000188271559126  -0.000005959702133 1
force C  -0.000056785815530   0.000001604850748  -0.000121169586317 1
force C   0.000408698913856  -0.000061929878854  -0.000196488196372 1
force C   0.000540673998117  -0.000103918868772   0.000093263816032 1
force C   0.000025037589316   0.000408099123855  -0.000006016591105 1
force C   0.000437008405651   0.000124108433475   0.000127497852772 1
force C   0.000011082830125  -0.000535431121499  -0.000175277668668 1
force C  -0.000358421004838   0.000077922977538  -0.000230545816185 1
force C  -0.000025873881320   0.000715982923883   0.000074070356032 1
force C  -0.000070633093617   0.000393349616709   0.000075400638867 1
force C  -0.000010354958149  -0.000031375194987  -0.000025540042394 1
force C  -0.000014631889300   0.000514644241181   0.000113992790845 1
force C  -0.000092622744926   0.000020867952129   0.000026213778840 1
force C  -0.000548878285687  -0.000042300606646   0.000012118917246 1
force C   0.000766696002041  -0.000681159910094   0.000247453033529 1
force N   0.001798616216307  -0.000908232738323  -0.000078448460382 1
force N  -0.001312589212989  -0.000599436361988  -0.000309568845389 1
force N   0.001548402554498   0.000747950844261   0.000319354689158 1
force N  -0.001451298700615   0.000768805507443  -0.000635740516061 1
force Ti  -0.000201044006662  -0.000480369378213  -0.002574897270599 1
force O  -0.000231933006051  -0.000338777848629   0.003562084784354 1
force O  -0.000427302636436   0.001196875780565   0.000085159335116 1
force O  -0.000106165932620   0.000012372693457   0.000507373855278 1
force H  -0.000248395188022   0.000360252424503  -0.000828166297487 1
force H   0.000147889865407  -0.000071508661525  -0.000570595928936 1

# Energy components:
   A_diel =       -0.0494815829614887
   Eewald =     1710.3455501639868999
       EH =     2039.1982266780303235
     Eloc =    -4304.8465879454679452
      Enl =       54.7775715107726739
     EvdW =       -0.0776014386505326
      Exc =     -113.2854055045377919
 Exc_core =        3.3745479436795534
       KE =      205.6914936735917365
  MuShift =       -0.0049481022084582
-------------------------------------
     Etot =     -404.8766346037654102
       TS =        0.0000472335586242
-------------------------------------
        F =     -404.8766818373240426
      muN =      -33.8192577135044274
-------------------------------------
        G =     -371.0574241238196009


Dumping 'jdft.fillings' ... done
Dumping 'jdft.wfns' ... done
Dumping 'jdft.fluidState' ... done
Dumping 'jdft.ionpos' ... done
Dumping 'jdft.lattice' ... done
Dumping 'jdft.eigenvals' ... done
Dumping 'jdft.eigStats' ... 
	eMin: -2.280539 at state 0 ( [ +0.000000 +0.000000 +0.000000 ] spin 1 )
	HOMO: -0.149310 at state 13 ( [ +0.333333 +0.333333 +0.000000 ] spin -1 )
	mu  : -0.145500
	LUMO: -0.135005 at state 0 ( [ +0.000000 +0.000000 +0.000000 ] spin 1 )
	eMax: +0.018312 at state 0 ( [ +0.000000 +0.000000 +0.000000 ] spin 1 )
	HOMO-LUMO gap: +0.014305
	Optical gap  : +0.016041 at state 4 ( [ +0.333333 +0.333333 +0.000000 ] spin 1 )
Dumping 'jdft.Ecomponents' ... done
IonicMinimize: Iter:   1  G: -371.057424123819601  |grad|_K:  5.151e-04  alpha:  1.000e+00  linmin: -4.423e-01  t[s]:   7057.77

#--- Lowdin population analysis ---
# oxidation-state C +0.042 +0.051 +0.043 +0.049 +0.040 +0.041 +0.170 +0.127 +0.033 +0.040 +0.043 +0.180 +0.028 +0.047 +0.052 +0.125 -0.002 +0.047 +0.039 +0.043 +0.033 +0.029 +0.028 +0.032 +0.042 +0.038 +0.045 -0.001 +0.130 +0.052 +0.043 +0.030 +0.174 +0.043 +0.042 +0.033 +0.123 +0.171 +0.046 +0.041 +0.050 +0.043 +0.051 +0.043 +0.222
# magnetic-moments C +0.000 -0.000 +0.000 +0.000 -0.000 +0.000 +0.000 -0.000 -0.000 -0.000 -0.000 +0.000 -0.000 -0.000 -0.000 -0.000 +0.000 -0.000 -0.000 +0.000 -0.000 -0.000 -0.000 -0.000 -0.000 +0.000 +0.000 -0.000 +0.000 -0.000 -0.000 +0.000 +0.000 +0.000 +0.000 +0.000 +0.000 -0.000 +0.000 +0.000 -0.000 -0.000 -0.000 -0.000 +0.000
# oxidation-state N -0.312 -0.318 -0.310 -0.307
# magnetic-moments N -0.000 -0.000 -0.000 -0.000
# oxidation-state Ti +1.444
# magnetic-moments Ti +0.000
# oxidation-state O -0.482 -0.478 -0.818
# magnetic-moments O -0.000 +0.000 -0.000
# oxidation-state H +0.392 +0.439
# magnetic-moments H +0.000 +0.000


Computing DFT-D3 correction:
# coordination-number C 3.300 3.321 3.335 3.333 3.313 3.290 3.325 3.580 3.331 3.314 3.303 3.332 3.305 3.301 3.325 3.618 3.266 3.301 3.320 3.335 3.328 3.302 3.301 3.327 3.336 3.320 3.301 3.269 3.571 3.325 3.302 3.306 3.323 3.302 3.314 3.330 3.619 3.325 3.289 3.313 3.333 3.335 3.322 3.300 3.000
# coordination-number N 3.178 3.178 3.176 3.183
# coordination-number Ti 7.488
# coordination-number O 1.998 1.051 1.982
# coordination-number H 1.002 0.993
# diagonal-C6 C 24.28 24.07 23.92 23.94 24.15 24.37 24.03 20.52 23.96 24.14 24.25 23.95 24.23 24.27 24.03 20.07 24.58 24.28 24.08 23.91 24.00 24.26 24.27 24.00 23.91 24.08 24.28 24.56 20.64 24.03 24.26 24.22 24.05 24.26 24.14 23.97 20.06 24.02 24.38 24.16 23.94 23.91 24.06 24.28 25.67
# diagonal-C6 N 15.60 15.60 15.60 15.60
# diagonal-C6 Ti 321.59
# diagonal-C6 O 10.41 12.77 10.41
# diagonal-C6 H 3.09 3.09
EvdW_6 =   -0.044037
EvdW_8 =   -0.033561
Shifting auxilliary hamiltonian by 0.000010 to set nElectrons=232.434761

-------- Electronic minimization -----------
	Linear fluid (dielectric constant: 78.4, screening length: 8.12261 Bohr) occupying 0.713410 of unit cell:	Completed after 4 iterations at t[s]:   7120.57
	FillingsUpdate:  mu: -0.145500000  nElectrons: 232.434761  magneticMoment: [ Abs: 0.00000  Tot: +0.00000 ]
ElecMinimize: Iter:   0  G: -371.057448608884897  |grad|_K:  2.941e-07  alpha:  1.000e+00
	Linear fluid (dielectric constant: 78.4, screening length: 8.12261 Bohr) occupying 0.713416 of unit cell:	Completed after 3 iterations at t[s]:   7237.56
	Linear fluid (dielectric constant: 78.4, screening length: 8.12261 Bohr) occupying 0.713415 of unit cell:	Completed after 2 iterations at t[s]:   7280.38
	FillingsUpdate:  mu: -0.145500000  nElectrons: 232.435552  magneticMoment: [ Abs: 0.00000  Tot: +0.00000 ]
	SubspaceRotationAdjust: set factor to 0.574
ElecMinimize: Iter:   1  G: -371.057462454545771  |grad|_K:  1.769e-07  alpha:  7.343e-01  linmin:  5.330e-05  t[s]:   7337.72
	Linear fluid (dielectric constant: 78.4, screening length: 8.12261 Bohr) occupying 0.713426 of unit cell:	Completed after 3 iterations at t[s]:   7389.44
	Linear fluid (dielectric constant: 78.4, screening length: 8.12261 Bohr) occupying 0.713420 of unit cell:	Completed after 3 iterations at t[s]:   7432.48
	FillingsUpdate:  mu: -0.145500000  nElectrons: 232.436043  magneticMoment: [ Abs: 0.00000  Tot: +0.00000 ]
	SubspaceRotationAdjust: set factor to 0.466
ElecMinimize: Iter:   2  G: -371.057464842083107  |grad|_K:  1.110e-07  alpha:  3.537e-01  linmin:  9.382e-05  t[s]:   7489.96
	Linear fluid (dielectric constant: 78.4, screening length: 8.12261 Bohr) occupying 0.713423 of unit cell:	Completed after 1 iterations at t[s]:   7539.73
	Linear fluid (dielectric constant: 78.4, screening length: 8.12261 Bohr) occupying 0.713425 of unit cell:	Completed after 2 iterations at t[s]:   7582.26
	FillingsUpdate:  mu: -0.145500000  nElectrons: 232.436493  magneticMoment: [ Abs: 0.00000  Tot: -0.00000 ]
	SubspaceRotationAdjust: set factor to 0.437
ElecMinimize: Iter:   3  G: -371.057466545195098  |grad|_K:  5.835e-08  alpha:  6.475e-01  linmin:  3.312e-05  t[s]:   7640.06
	Linear fluid (dielectric constant: 78.4, screening length: 8.12261 Bohr) occupying 0.713427 of unit cell:	Completed after 1 iterations at t[s]:   7690.05
	Linear fluid (dielectric constant: 78.4, screening length: 8.12261 Bohr) occupying 0.713427 of unit cell:	Completed after 0 iterations at t[s]:   7730.56
	FillingsUpdate:  mu: -0.145500000  nElectrons: 232.436661  magneticMoment: [ Abs: 0.00000  Tot: -0.00000 ]
	SubspaceRotationAdjust: set factor to 0.441
ElecMinimize: Iter:   4  G: -371.057466941053406  |grad|_K:  3.192e-08  alpha:  5.336e-01  linmin:  3.000e-04  t[s]:   7788.16
	Linear fluid (dielectric constant: 78.4, screening length: 8.12261 Bohr) occupying 0.713427 of unit cell:	Completed after 0 iterations at t[s]:   7837.90
[...]
	Linear fluid (dielectric constant: 78.4, screening length: 8.12261 Bohr) occupying 0.713468 of unit cell:	Completed after 1 iterations at t[s]:  21468.01
	FillingsUpdate:  mu: -0.145500000  nElectrons: 232.439896  magneticMoment: [ Abs: 0.00000  Tot: -0.00000 ]
	SubspaceRotationAdjust: set factor to 0.405
ElecMinimize: Iter:   2  G: -371.057613930257332  |grad|_K:  5.922e-08  alpha:  3.294e-01  linmin:  3.804e-04  t[s]:  21529.61
	Linear fluid (dielectric constant: 78.4, screening length: 8.12261 Bohr) occupying 0.713468 of unit cell:	Completed after 1 iterations at t[s]:  21583.33
	Linear fluid (dielectric constant: 78.4, screening length: 8.12261 Bohr) occupying 0.713468 of unit cell:	Completed after 1 iterations at t[s]:  21627.98
	FillingsUpdate:  mu: -0.145500000  nElectrons: 232.439876  magneticMoment: [ Abs: 0.00000  Tot: +0.00000 ]
	SubspaceRotationAdjust: set factor to 0.535
ElecMinimize: Iter:   3  G: -371.057614339947861  |grad|_K:  2.786e-08  alpha:  5.454e-01  linmin: -1.719e-03  t[s]:  21688.99
	Linear fluid (dielectric constant: 78.4, screening length: 8.12261 Bohr) occupying 0.713467 of unit cell:	Completed after 1 iterations at t[s]:  21743.13
	Linear fluid (dielectric constant: 78.4, screening length: 8.12261 Bohr) occupying 0.713467 of unit cell:	Completed after 0 iterations at t[s]:  21786.54
	FillingsUpdate:  mu: -0.145500000  nElectrons: 232.439866  magneticMoment: [ Abs: 0.00000  Tot: +0.00000 ]
	SubspaceRotationAdjust: set factor to 0.581
ElecMinimize: Iter:   4  G: -371.057614446811215  |grad|_K:  1.738e-08  alpha:  5.662e-01  linmin: -4.161e-03  t[s]:  21847.81
	Linear fluid (dielectric constant: 78.4, screening length: 8.12261 Bohr) occupying 0.713467 of unit cell:	Completed after 0 iterations at t[s]:  21899.93
	Linear fluid (dielectric constant: 78.4, screening length: 8.12261 Bohr) occupying 0.713467 of unit cell:	Completed after 1 iterations at t[s]:  21944.74
	FillingsUpdate:  mu: -0.145500000  nElectrons: 232.439859  magneticMoment: [ Abs: 0.00000  Tot: +0.00000 ]
	SubspaceRotationAdjust: set factor to 0.588
ElecMinimize: Iter:   5  G: -371.057614473844978  |grad|_K:  1.446e-08  alpha:  7.460e-01  linmin:  3.821e-03  t[s]:  22005.64
	Linear fluid (dielectric constant: 78.4, screening length: 8.12261 Bohr) occupying 0.713467 of unit cell:	Completed after 1 iterations at t[s]:  22059.64
	Linear fluid (dielectric constant: 78.4, screening length: 8.12261 Bohr) occupying 0.713467 of unit cell:	Completed after 0 iterations at t[s]:  22103.21
ElecMinimize: 	Step increased G by 2.235367e-09, reducing alpha to 2.905925e-02.
	Linear fluid (dielectric constant: 78.4, screening length: 8.12261 Bohr) occupying 0.713467 of unit cell:	Completed after 0 iterations at t[s]:  22203.65
ElecMinimize: 	Step increased G by 6.016307e-09, reducing alpha to 2.905925e-03.
	Linear fluid (dielectric constant: 78.4, screening length: 8.12261 Bohr) occupying 0.713467 of unit cell:	Completed after 0 iterations at t[s]:  22303.10
ElecMinimize: 	Step increased G by 6.769710e-09, reducing alpha to 2.905925e-04.
ElecMinimize: 	Step failed to reduce G after 3 attempts. Quitting step.
ElecMinimize: 	Undoing step.
	Linear fluid (dielectric constant: 78.4, screening length: 8.12261 Bohr) occupying 0.713467 of unit cell:	Completed after 0 iterations at t[s]:  22403.11
ElecMinimize: 	Step failed: resetting search direction.
	FillingsUpdate:  mu: -0.145500000  nElectrons: 232.439859  magneticMoment: [ Abs: 0.00000  Tot: +0.00000 ]
	SubspaceRotationAdjust: set factor to 0.585
ElecMinimize: Iter:   6  G: -371.057614467086125  |grad|_K:  1.767e-08  alpha:  2.906e-04
	Linear fluid (dielectric constant: 78.4, screening length: 8.12261 Bohr) occupying 0.713467 of unit cell:	Completed after 2 iterations at t[s]:  22518.48
	Linear fluid (dielectric constant: 78.4, screening length: 8.12261 Bohr) occupying 0.713467 of unit cell:	Completed after 0 iterations at t[s]:  22561.20
	FillingsUpdate:  mu: -0.145500000  nElectrons: 232.439853  magneticMoment: [ Abs: 0.00000  Tot: +0.00000 ]
	SubspaceRotationAdjust: set factor to 0.413
ElecMinimize: Iter:   7  G: -371.057614503342450  |grad|_K:  2.563e-08  alpha:  3.260e-01  linmin:  9.588e-03  t[s]:  22621.95
	Linear fluid (dielectric constant: 78.4, screening length: 8.12261 Bohr) occupying 0.713467 of unit cell:	Completed after 0 iterations at t[s]:  22673.98
	Linear fluid (dielectric constant: 78.4, screening length: 8.12261 Bohr) occupying 0.713467 of unit cell:	Completed after 0 iterations at t[s]:  22717.45
	FillingsUpdate:  mu: -0.145500000  nElectrons: 232.439857  magneticMoment: [ Abs: 0.00000  Tot: +0.00000 ]
	SubspaceRotationAdjust: set factor to 0.398
ElecMinimize: Iter:   8  G: -371.057614513105932  |grad|_K:  2.436e-08  alpha:  1.695e-01  linmin: -1.205e-05  t[s]:  22778.42
ElecMinimize: Converged (|Delta G|<1.000000e-07 for 2 iters).
Setting wave functions to eigenvectors of Hamiltonian
Converging empty states (this may take a while): |deigs|: 4.794e-09

Computing DFT-D3 correction:
# coordination-number C 3.300 3.321 3.334 3.332 3.313 3.291 3.325 3.580 3.330 3.314 3.303 3.332 3.304 3.301 3.324 3.621 3.267 3.301 3.320 3.334 3.327 3.302 3.301 3.326 3.335 3.320 3.301 3.269 3.571 3.324 3.302 3.306 3.323 3.302 3.314 3.329 3.622 3.325 3.290 3.313 3.332 3.334 3.321 3.300 3.000
# coordination-number N 3.177 3.177 3.176 3.182
# coordination-number Ti 7.489
# coordination-number O 1.996 1.052 1.982
# coordination-number H 1.002 0.993
# diagonal-C6 C 24.28 24.07 23.93 23.95 24.16 24.37 24.03 20.53 23.97 24.14 24.25 23.95 24.24 24.27 24.03 20.04 24.58 24.28 24.08 23.93 24.01 24.27 24.28 24.01 23.92 24.08 24.28 24.56 20.64 24.03 24.26 24.23 24.05 24.26 24.15 23.98 20.03 24.02 24.38 24.16 23.95 23.93 24.07 24.28 25.67
# diagonal-C6 N 15.60 15.60 15.60 15.60
# diagonal-C6 Ti 321.59
# diagonal-C6 O 10.41 12.77 10.41
# diagonal-C6 H 3.09 3.09
EvdW_6 =   -0.044050
EvdW_8 =   -0.033536

# Ionic positions in cartesian coordinates:
ion C  -0.006640068263121   0.086462382063209  43.322517653543748 1
ion C  21.041709164439958   4.047446159799057  43.296911660356166 1
ion C  18.696419394984716   8.049501923434134  43.194388791736671 1
ion C  -7.052336493202835  12.049776254969506  43.186113520578452 1
ion C  -9.379807904955474  16.060950798943196  43.274895382080878 1
ion C   4.677783135317502   0.188780107572836   0.085992229358696 1
ion C   2.290345874907745   4.205652167712635   0.166402101094480 1
ion C  -0.120298244152243   8.035204677724822   0.108088694812925 1
ion C  -2.440621358696075  12.041557335818272  43.251060129996795 1
ion C  -4.732497287216380  16.066990672109721  43.264260530422241 1
ion C   9.368081668641333   0.086959384674953  43.284613108137634 1
ion C   7.080410661696410   4.192124362299887   0.107076729374238 1
ion C  -0.038829983943206  15.975643018964622   0.059527746331104 1
ion C   2.340772786651019  19.933994146697813  43.297799529737617 1
ion C  11.755036029860289   4.032594527310231  43.240573876742317 1
ion C   9.468422384196115   8.022353362351065   0.035695088562232 1
ion C   4.664242710785182  15.835316023251627   0.159145579801455 1
ion C   6.990273759082898  19.939335867522555  43.317398915772898 1
ion C  16.398099162747187   4.019617384490249  43.227345099555400 1
ion C  14.089903733982911   8.041837678306450  43.177568833141500 1
ion C  11.770989272058834  12.044560073547188  43.255200532892559 1
ion C   9.364786142505212  15.980619966469119   0.071974873842845 1
ion C  -0.017471582175922   2.770909965755819   0.084034134628725 1
ion C  -2.424763294626636   6.701263605852807  43.270648549932467 1
ion C  -4.747742857545170  10.702046922351885  43.189097767336619 1
ion C  -7.054622564249135  14.724848612970273  43.235889503840149 1
ion C  -9.379976690167176  18.748307338137671  43.319296989937691 1
ion C   4.679676974846412   2.909078469276670   0.146250368676366 1
ion C  -0.129229857969106  10.722052301626585   0.098534473480242 1
ion C  -2.411655900316977  14.710849547133815  43.274178546923793 1
ion C  -4.729740227214452  18.751918870007064  43.302282573249641 1
ion C   9.383438674966763   2.764504492721873   0.021102576329657 1
ion C   2.264405612060216  14.541190123988356   0.159789827286147 1
ion C  -0.022254131867669  18.654566060064923  43.292203460570875 1
ion C  14.076080077874639   2.677060804423824  43.247014924286574 1
ion C  11.782138302268560   6.702324740451779  43.219821582101922 1
ion C   9.464705407637364  10.712518825963734   0.063875740357069 1
ion C   7.057465755198326  14.547935213580448   0.146888138096754 1
ion C   4.665998326571074  18.555644627284565   0.087738428475332 1
ion C  18.723906245665141   2.684534302384554  43.274510867815529 1
ion C  16.395467650752579   6.694364487144417  43.180587671363867 1
ion C  14.083521606620181  10.713013716362461  43.188740561775504 1
ion C  11.738810479678781  14.716773046020490  43.286644063632494 1
ion C   9.352798962660929  18.663352284071241  43.320225032088210 1
ion C   4.954957032853271   8.322929465246025   5.416221630871639 1
ion N   2.145568258752360  11.955964890482734   0.257682400434285 1
ion N   7.176744179935299  11.948416172185008   0.207132377346701 1
ion N   2.174495203649363   6.810405189382275   0.266174642142679 1
ion N   7.191684293011433   6.776791991333782   0.170140091049998 1
ion Ti   4.723409100442444   9.356507402229226   1.683673704617580 1
ion O   4.072415720139661  10.645988726856570   5.189636603005462 1
ion O   5.307312520477899   7.179790481412025   7.443787818185473 1
ion O   7.217993234123793   2.454001133702219   6.753624235353594 1
ion H   6.431779235617281   4.179030286970040   6.861650559019987 1
ion H   5.806250708900538   1.318255626591920   6.364705547914825 1

# Forces in Cartesian coordinates:
force C   0.000026406410082   0.000099336231714  -0.000058320695060 1
force C   0.000116324597991   0.000059885210103  -0.000009520512621 1
force C   0.000026673081142  -0.000008315935111   0.000062360790006 1
force C   0.000048123198201   0.000054474171996   0.000105474694694 1
force C  -0.000082632479060   0.000010602801825   0.000049386840550 1
force C  -0.000016363237312   0.000074504002941  -0.000069978347802 1
force C   0.000091802939447   0.000090977552070   0.000021582571145 1
force C  -0.000064852187139  -0.000042419351171   0.000102720566666 1
force C   0.000071016121499  -0.000072331506875   0.000031499182843 1
force C   0.000044048044812   0.000016168532398   0.000050273331804 1
force C   0.000035646087706  -0.000009671497174  -0.000118780268415 1
force C   0.000017108929305   0.000116494655632   0.000011835080200 1
force C   0.000076415006500  -0.000177888736655  -0.000017948215152 1
force C  -0.000070826597746  -0.000055062035627   0.000016299701061 1
force C  -0.000062163013095   0.000004509109513  -0.000101215613282 1
force C   0.000007044950724  -0.000109505435607   0.000040105044383 1
force C  -0.000014716353920  -0.000122770649214  -0.000013064722317 1
force C   0.000053461887953  -0.000051608760687  -0.000040443132493 1
force C   0.000016422661186  -0.000076080217475   0.000141533591742 1
force C   0.000055372443910  -0.000044080337723   0.000004782617136 1
force C  -0.000008386968154  -0.000097017528707  -0.000027543588988 1
force C  -0.000025750486744  -0.000071299880600  -0.000035569395496 1
force C   0.000110255033894   0.000160767724166  -0.000028494634374 1
force C   0.000032681146208   0.000092120186869   0.000040280669153 1
force C   0.000035518883912   0.000035738807698   0.000047752541517 1
force C  -0.000014082477731   0.000068858963688   0.000154552725538 1
force C  -0.000050001669323   0.000048834391866  -0.000011678486053 1
force C   0.000010332379214   0.000112335859962  -0.000056995225817 1
force C  -0.000016908648914   0.000018054759471   0.000128394373527 1
force C   0.000078049572643  -0.000036759111047  -0.000047501772867 1
force C   0.000041489787889   0.000048713533151  -0.000041674811637 1
force C   0.000011988580097   0.000070589434740  -0.000076413182188 1
force C   0.000071094578915  -0.000063510807074   0.000087143761001 1
force C  -0.000013787493699  -0.000095262493449  -0.000060514204458 1
force C  -0.000026658449996  -0.000012173216687   0.000035881253012 1
force C  -0.000008104877096   0.000094402274683  -0.000031715257984 1
force C   0.000002350322694   0.000041816288113   0.000043134226849 1
force C  -0.000004547045257  -0.000115182423696   0.000023392518230 1
force C  -0.000010277714957  -0.000067471623256  -0.000040878767146 1
force C   0.000077915402335  -0.000016383562867   0.000045238508242 1
force C   0.000039620227859  -0.000038203089531   0.000095366550031 1
force C   0.000075469486498   0.000024637080936   0.000020835961943 1
force C  -0.000085372123026  -0.000023210553255  -0.000054696397595 1
force C   0.000048218967725   0.000021651809049  -0.000067417846537 1
force C   0.000072277369771   0.000083186396263  -0.000582318463049 1
force N  -0.000085810133186  -0.000017137444224   0.000096123204334 1
force N  -0.000009478748545  -0.000154591764970  -0.000015465696092 1
force N  -0.000079403891288   0.000029380861077   0.000023413611693 1
force N   0.000005706228747   0.000183100412738  -0.000029717775923 1
force Ti   0.000146068711225  -0.000048088801616  -0.000097279845222 1
force O  -0.000129261157223  -0.000182378795765  -0.000188187185124 1
force O   0.000275183501009  -0.000175798820007   0.000223715446019 1
force O  -0.000199722218784  -0.000109663265905  -0.000024439343591 1
force H  -0.000060540600845   0.000051961718204   0.000081466353135 1
force H   0.000248056586744   0.000142555943684  -0.000501517044238 1

# Energy components:
   A_diel =       -0.0511910378084485
   Eewald =     1709.2342069128642379
       EH =     2038.0124164073756674
     Eloc =    -4302.5220952252957431
      Enl =       54.7726560045863948
     EvdW =       -0.0775852937583885
      Exc =     -113.2762421721246255
 Exc_core =        3.3745444993942706
       KE =      205.6607089237495813
  MuShift =       -0.0050060977044490
-------------------------------------
     Etot =     -404.8775870787217741
       TS =        0.0000265760797128
-------------------------------------
        F =     -404.8776136548015074
      muN =      -33.8199991416955541
-------------------------------------
        G =     -371.0576145131059320


Dumping 'jdft.fillings' ... done
Dumping 'jdft.wfns' ... done
Dumping 'jdft.fluidState' ... done
Dumping 'jdft.ionpos' ... done
Dumping 'jdft.lattice' ... done
Dumping 'jdft.eigenvals' ... done
Dumping 'jdft.eigStats' ... 
	eMin: -2.281348 at state 0 ( [ +0.000000 +0.000000 +0.000000 ] spin 1 )
	HOMO: -0.150068 at state 8 ( [ -0.333333 -0.333333 +0.000000 ] spin 1 )
	mu  : -0.145500
	LUMO: -0.135604 at state 14 ( [ +0.333333 -0.333333 +0.000000 ] spin -1 )
	eMax: +0.018028 at state 9 ( [ +0.000000 +0.000000 +0.000000 ] spin -1 )
	HOMO-LUMO gap: +0.014464
	Optical gap  : +0.016239 at state 8 ( [ -0.333333 -0.333333 +0.000000 ] spin 1 )
Dumping 'jdft.Ecomponents' ... done
IonicMinimize: Iter:  11  G: -371.057614513105932  |grad|_K:  9.968e-05  alpha:  1.000e+00  linmin: -4.884e-01  t[s]:  22931.26
IonicMinimize: Converged (|grad|_K<1.000000e-04).

#--- Lowdin population analysis ---
# oxidation-state C +0.042 +0.051 +0.043 +0.049 +0.040 +0.041 +0.170 +0.127 +0.033 +0.040 +0.043 +0.180 +0.028 +0.047 +0.052 +0.125 -0.001 +0.047 +0.039 +0.043 +0.033 +0.029 +0.028 +0.033 +0.043 +0.038 +0.045 -0.001 +0.130 +0.052 +0.044 +0.030 +0.174 +0.043 +0.042 +0.033 +0.123 +0.172 +0.046 +0.041 +0.050 +0.044 +0.052 +0.043 +0.220
# magnetic-moments C -0.000 +0.000 -0.000 +0.000 -0.000 +0.000 -0.000 +0.000 -0.000 +0.000 -0.000 -0.000 +0.000 +0.000 -0.000 +0.000 +0.000 +0.000 +0.000 -0.000 -0.000 +0.000 +0.000 +0.000 -0.000 +0.000 -0.000 +0.000 -0.000 -0.000 +0.000 -0.000 +0.000 +0.000 -0.000 -0.000 +0.000 -0.000 -0.000 +0.000 -0.000 +0.000 -0.000 -0.000 -0.000
# oxidation-state N -0.312 -0.318 -0.309 -0.306
# magnetic-moments N -0.000 +0.000 -0.000 -0.000
# oxidation-state Ti +1.443
# magnetic-moments Ti +0.000
# oxidation-state O -0.486 -0.482 -0.819
# magnetic-moments O +0.000 -0.000 -0.000
# oxidation-state H +0.392 +0.439
# magnetic-moments H -0.000 +0.000


Dumping 'jdft.n_up' ... done
Dumping 'jdft.n_dn' ... done
Dumping 'jdft.tau_up' ... done
Dumping 'jdft.tau_dn' ... done
Dumping 'jdft.eigenvals' ... done
Dumping 'jdft.eigStats' ... 
	eMin: -2.281348 at state 0 ( [ +0.000000 +0.000000 +0.000000 ] spin 1 )
	HOMO: -0.150068 at state 8 ( [ -0.333333 -0.333333 +0.000000 ] spin 1 )
	mu  : -0.145500
	LUMO: -0.135604 at state 14 ( [ +0.333333 -0.333333 +0.000000 ] spin -1 )
	eMax: +0.018028 at state 9 ( [ +0.000000 +0.000000 +0.000000 ] spin -1 )
	HOMO-LUMO gap: +0.014464
	Optical gap  : +0.016239 at state 8 ( [ -0.333333 -0.333333 +0.000000 ] spin 1 )
Dumping 'jdft.kPts' ... done
Dumping 'jdft.dosUp' ... done.
Dumping 'jdft.dosDn' ... done.
End date and time: Tue Jul 19 09:39:07 2022  (Duration: 0-6:23:46.49)
Done!

PROFILER:             augmentDensityGrid     0.720743 +/-     0.886410 s, 1250 calls,    900.928291 s total
PROFILER:         augmentDensityGridGrad     0.503505 +/-     0.638684 s,  765 calls,    385.181433 s total
PROFILER:        augmentDensitySpherical     0.000486 +/-     0.000689 s, 1250 calls,      0.607534 s total
PROFILER:    augmentDensitySphericalGrad     0.000556 +/-     0.001482 s, 1085 calls,      0.603331 s total
PROFILER:                 augmentOverlap     1.551852 +/-     2.279754 s, 3120 calls,   4841.777407 s total
PROFILER:                     diagouterI    16.015958 +/-     0.453966 s,  253 calls,   4052.037284 s total
PROFILER:              EdensityAndVscloc     9.545611 +/-     2.985871 s,  250 calls,   2386.402770 s total
PROFILER:                     EnlAndGrad     0.001451 +/-     0.002300 s, 1630 calls,      2.365659 s total
PROFILER:            ExCorrCommunication     0.087615 +/-     0.119095 s, 1634 calls,    143.163710 s total
PROFILER:               ExCorrFunctional     0.024347 +/-     0.005359 s,  287 calls,      6.987446 s total
PROFILER:                    ExCorrTotal     0.772713 +/-     0.247380 s,  287 calls,    221.768660 s total
PROFILER:                   Idag_DiagV_I    26.681409 +/-    11.255047 s,  205 calls,   5469.688801 s total
PROFILER:                    initWeights     1.918172 +/-     0.000000 s,    1 calls,      1.918172 s total
PROFILER:                    inv(matrix)     0.003486 +/-     0.005803 s,  244 calls,      0.850570 s total
PROFILER:            matrix::diagonalize     0.009420 +/-     0.012092 s,  451 calls,      4.248295 s total
PROFILER:                    matrix::set     0.000002 +/-     0.000006 s, 30363 calls,      0.064395 s total
PROFILER:            orthoMatrix(matrix)     0.002100 +/-     0.001215 s,  297 calls,      0.623600 s total
PROFILER:     RadialFunctionR::transform     0.013718 +/-     0.136176 s,  146 calls,      2.002756 s total
PROFILER:                    reduceKmesh     0.000000 +/-     0.000000 s,    1 calls,      0.000000 s total
PROFILER:   VanDerWaalsD3::energyAndGrad     0.036029 +/-     0.005008 s,   25 calls,      0.900733 s total
PROFILER:               WavefunctionDrag    33.224629 +/-     3.987454 s,   12 calls,    398.695543 s total
PROFILER:                            Y*M     0.689375 +/-     0.869119 s, 5397 calls,   3720.556774 s total
PROFILER:                          Y1^Y2     0.725744 +/-     0.908313 s, 4058 calls,   2945.070848 s total

MEMUSAGE:                   ColumnBundle     1.365987 GB
MEMUSAGE:        complexScalarFieldTilde     0.074158 GB
MEMUSAGE:                    IndexArrays     0.023178 GB
MEMUSAGE:                         matrix     0.020850 GB
MEMUSAGE:                           misc     0.051230 GB
MEMUSAGE:                    ScalarField     0.358429 GB
MEMUSAGE:               ScalarFieldTilde     0.262436 GB
MEMUSAGE:                          Total     1.646313 GB
