
*************** JDFTx 1.7.0 (git hash 5f12716a) ***************

Start date and time: Sun Jul 17 11:58:54 2022
Executable /home/nisi6161/jdftx_alpine/build/jdftx with command-line: -i in
Running on hosts (process indices):  c3cpu-a2-u13-3.rc.int.colorado.edu (0-17)
Divided in process groups (process indices):  0 (0)  1 (1)  2 (2)  3 (3)  4 (4)  5 (5)  6 (6)  7 (7)  8 (8)  9 (9)  10 (10)  11 (11)  12 (12)  13 (13)  14 (14)  15 (15)  16 (16)  17 (17)
Resource initialization completed at t[s]:      0.00
Run totals: 18 processes, 64 threads, 0 GPUs


Input parsed successfully to the following command list (including defaults):

basis kpoint-dependent
converge-empty-states yes
coords-type Cartesian
core-overlap-check none
coulomb-interaction Periodic
davidson-band-ratio 1.1
density-of-states Etol 1.000000e-06 Esigma 1.000000e-03 \
		Complete \
	Total \
	OrthoOrbital C 1   s \
	OrthoOrbital C 1   p \
	OrthoOrbital C 1   px \
	OrthoOrbital C 1   py \
	OrthoOrbital C 1   pz \
	OrthoOrbital C 2   s \
	OrthoOrbital C 2   p \
	OrthoOrbital C 2   px \
	OrthoOrbital C 2   py \
	OrthoOrbital C 2   pz \
	OrthoOrbital C 3   s \
	OrthoOrbital C 3   p \
	OrthoOrbital C 3   px \
	OrthoOrbital C 3   py \
	OrthoOrbital C 3   pz \
	OrthoOrbital C 4   s \
	OrthoOrbital C 4   p \
	OrthoOrbital C 4   px \
	OrthoOrbital C 4   py \
	OrthoOrbital C 4   pz \
	OrthoOrbital C 5   s \
	OrthoOrbital C 5   p \
	OrthoOrbital C 5   px \
	OrthoOrbital C 5   py \
	OrthoOrbital C 5   pz \
	OrthoOrbital C 6   s \
	OrthoOrbital C 6   p \
	OrthoOrbital C 6   px \
	OrthoOrbital C 6   py \
	OrthoOrbital C 6   pz \
	OrthoOrbital C 7   s \
	OrthoOrbital C 7   p \
	OrthoOrbital C 7   px \
	OrthoOrbital C 7   py \
	OrthoOrbital C 7   pz \
	OrthoOrbital C 8   s \
	OrthoOrbital C 8   p \
	OrthoOrbital C 8   px \
	OrthoOrbital C 8   py \
	OrthoOrbital C 8   pz \
	OrthoOrbital C 9   s \
	OrthoOrbital C 9   p \
	OrthoOrbital C 9   px \
	OrthoOrbital C 9   py \
	OrthoOrbital C 9   pz \
	OrthoOrbital C 10   s \
	OrthoOrbital C 10   p \
	OrthoOrbital C 10   px \
	OrthoOrbital C 10   py \
	OrthoOrbital C 10   pz \
	OrthoOrbital C 11   s \
	OrthoOrbital C 11   p \
	OrthoOrbital C 11   px \
	OrthoOrbital C 11   py \
	OrthoOrbital C 11   pz \
	OrthoOrbital C 12   s \
	OrthoOrbital C 12   p \
	OrthoOrbital C 12   px \
	OrthoOrbital C 12   py \
	OrthoOrbital C 12   pz \
	OrthoOrbital C 13   s \
	OrthoOrbital C 13   p \
	OrthoOrbital C 13   px \
	OrthoOrbital C 13   py \
	OrthoOrbital C 13   pz \
	OrthoOrbital C 14   s \
	OrthoOrbital C 14   p \
	OrthoOrbital C 14   px \
	OrthoOrbital C 14   py \
	OrthoOrbital C 14   pz \
	OrthoOrbital C 15   s \
	OrthoOrbital C 15   p \
	OrthoOrbital C 15   px \
	OrthoOrbital C 15   py \
	OrthoOrbital C 15   pz \
	OrthoOrbital C 16   s \
	OrthoOrbital C 16   p \
	OrthoOrbital C 16   px \
	OrthoOrbital C 16   py \
	OrthoOrbital C 16   pz \
	OrthoOrbital C 17   s \
	OrthoOrbital C 17   p \
	OrthoOrbital C 17   px \
	OrthoOrbital C 17   py \
	OrthoOrbital C 17   pz \
	OrthoOrbital C 18   s \
	OrthoOrbital C 18   p \
	OrthoOrbital C 18   px \
	OrthoOrbital C 18   py \
	OrthoOrbital C 18   pz \
	OrthoOrbital C 19   s \
	OrthoOrbital C 19   p \
	OrthoOrbital C 19   px \
	OrthoOrbital C 19   py \
	OrthoOrbital C 19   pz \
	OrthoOrbital C 20   s \
	OrthoOrbital C 20   p \
	OrthoOrbital C 20   px \
	OrthoOrbital C 20   py \
	OrthoOrbital C 20   pz \
	OrthoOrbital C 21   s \
	OrthoOrbital C 21   p \
	OrthoOrbital C 21   px \
	OrthoOrbital C 21   py \
	OrthoOrbital C 21   pz \
	OrthoOrbital C 22   s \
	OrthoOrbital C 22   p \
	OrthoOrbital C 22   px \
	OrthoOrbital C 22   py \
	OrthoOrbital C 22   pz \
	OrthoOrbital C 23   s \
	OrthoOrbital C 23   p \
	OrthoOrbital C 23   px \
	OrthoOrbital C 23   py \
	OrthoOrbital C 23   pz \
	OrthoOrbital C 24   s \
	OrthoOrbital C 24   p \
	OrthoOrbital C 24   px \
	OrthoOrbital C 24   py \
	OrthoOrbital C 24   pz \
	OrthoOrbital C 25   s \
	OrthoOrbital C 25   p \
	OrthoOrbital C 25   px \
	OrthoOrbital C 25   py \
	OrthoOrbital C 25   pz \
	OrthoOrbital C 26   s \
	OrthoOrbital C 26   p \
	OrthoOrbital C 26   px \
	OrthoOrbital C 26   py \
	OrthoOrbital C 26   pz \
	OrthoOrbital C 27   s \
	OrthoOrbital C 27   p \
	OrthoOrbital C 27   px \
	OrthoOrbital C 27   py \
	OrthoOrbital C 27   pz \
	OrthoOrbital C 28   s \
	OrthoOrbital C 28   p \
	OrthoOrbital C 28   px \
	OrthoOrbital C 28   py \
	OrthoOrbital C 28   pz \
	OrthoOrbital C 29   s \
	OrthoOrbital C 29   p \
	OrthoOrbital C 29   px \
	OrthoOrbital C 29   py \
	OrthoOrbital C 29   pz \
	OrthoOrbital C 30   s \
	OrthoOrbital C 30   p \
	OrthoOrbital C 30   px \
	OrthoOrbital C 30   py \
	OrthoOrbital C 30   pz \
	OrthoOrbital C 31   s \
	OrthoOrbital C 31   p \
	OrthoOrbital C 31   px \
	OrthoOrbital C 31   py \
	OrthoOrbital C 31   pz \
	OrthoOrbital C 32   s \
	OrthoOrbital C 32   p \
	OrthoOrbital C 32   px \
	OrthoOrbital C 32   py \
	OrthoOrbital C 32   pz \
	OrthoOrbital C 33   s \
	OrthoOrbital C 33   p \
	OrthoOrbital C 33   px \
	OrthoOrbital C 33   py \
	OrthoOrbital C 33   pz \
	OrthoOrbital C 34   s \
	OrthoOrbital C 34   p \
	OrthoOrbital C 34   px \
	OrthoOrbital C 34   py \
	OrthoOrbital C 34   pz \
	OrthoOrbital C 35   s \
	OrthoOrbital C 35   p \
	OrthoOrbital C 35   px \
	OrthoOrbital C 35   py \
	OrthoOrbital C 35   pz \
	OrthoOrbital C 36   s \
	OrthoOrbital C 36   p \
	OrthoOrbital C 36   px \
	OrthoOrbital C 36   py \
	OrthoOrbital C 36   pz \
	OrthoOrbital C 37   s \
	OrthoOrbital C 37   p \
	OrthoOrbital C 37   px \
	OrthoOrbital C 37   py \
	OrthoOrbital C 37   pz \
	OrthoOrbital C 38   s \
	OrthoOrbital C 38   p \
	OrthoOrbital C 38   px \
	OrthoOrbital C 38   py \
	OrthoOrbital C 38   pz \
	OrthoOrbital C 39   s \
	OrthoOrbital C 39   p \
	OrthoOrbital C 39   px \
	OrthoOrbital C 39   py \
	OrthoOrbital C 39   pz \
	OrthoOrbital C 40   s \
	OrthoOrbital C 40   p \
	OrthoOrbital C 40   px \
	OrthoOrbital C 40   py \
	OrthoOrbital C 40   pz \
	OrthoOrbital C 41   s \
	OrthoOrbital C 41   p \
	OrthoOrbital C 41   px \
	OrthoOrbital C 41   py \
	OrthoOrbital C 41   pz \
	OrthoOrbital C 42   s \
	OrthoOrbital C 42   p \
	OrthoOrbital C 42   px \
	OrthoOrbital C 42   py \
	OrthoOrbital C 42   pz \
	OrthoOrbital C 43   s \
	OrthoOrbital C 43   p \
	OrthoOrbital C 43   px \
	OrthoOrbital C 43   py \
	OrthoOrbital C 43   pz \
	OrthoOrbital C 44   s \
	OrthoOrbital C 44   p \
	OrthoOrbital C 44   px \
	OrthoOrbital C 44   py \
	OrthoOrbital C 44   pz \
	OrthoOrbital C 45   s \
	OrthoOrbital C 45   p \
	OrthoOrbital C 45   px \
	OrthoOrbital C 45   py \
	OrthoOrbital C 45   pz \
	OrthoOrbital N 1   s \
	OrthoOrbital N 1   p \
	OrthoOrbital N 1   px \
	OrthoOrbital N 1   py \
	OrthoOrbital N 1   pz \
	OrthoOrbital N 2   s \
	OrthoOrbital N 2   p \
	OrthoOrbital N 2   px \
	OrthoOrbital N 2   py \
	OrthoOrbital N 2   pz \
	OrthoOrbital N 3   s \
	OrthoOrbital N 3   p \
	OrthoOrbital N 3   px \
	OrthoOrbital N 3   py \
	OrthoOrbital N 3   pz \
	OrthoOrbital N 4   s \
	OrthoOrbital N 4   p \
	OrthoOrbital N 4   px \
	OrthoOrbital N 4   py \
	OrthoOrbital N 4   pz \
	OrthoOrbital Ti 1   s \
	OrthoOrbital Ti 1   p \
	OrthoOrbital Ti 1   px \
	OrthoOrbital Ti 1   py \
	OrthoOrbital Ti 1   pz \
	OrthoOrbital Ti 1   d \
	OrthoOrbital Ti 1   dxy \
	OrthoOrbital Ti 1   dyz \
	OrthoOrbital Ti 1   dz2 \
	OrthoOrbital Ti 1   dxz \
	OrthoOrbital Ti 1   dx2-y2 \
	OrthoOrbital O 1   s \
	OrthoOrbital O 1   p \
	OrthoOrbital O 1   px \
	OrthoOrbital O 1   py \
	OrthoOrbital O 1   pz \
	OrthoOrbital O 2   s \
	OrthoOrbital O 2   p \
	OrthoOrbital O 2   px \
	OrthoOrbital O 2   py \
	OrthoOrbital O 2   pz \
	OrthoOrbital O 3   s \
	OrthoOrbital O 3   p \
	OrthoOrbital O 3   px \
	OrthoOrbital O 3   py \
	OrthoOrbital O 3   pz \
	OrthoOrbital H 1   s \
	OrthoOrbital H 2   s
dump End ElecDensity KEdensity BandEigs EigStats RhoAtom DOS Kpoints
dump Ionic State IonicPositions Lattice EigStats Ecomponents
dump 
dump 
dump 
dump 
dump 
dump 
dump 
dump 
dump-name jdft.$VAR
elec-cutoff 20
elec-eigen-algo Davidson
elec-ex-corr gga-PBE
elec-initial-magnetization 0.000000 no
elec-n-bands 140
elec-smearing Fermi 0.001
electronic-minimize  \
	dirUpdateScheme      FletcherReeves \
	linminMethod         DirUpdateRecommended \
	nIterations          100 \
	history              15 \
	knormThreshold       0 \
	energyDiffThreshold  1e-07 \
	nEnergyDiff          2 \
	alphaTstart          1 \
	alphaTmin            1e-10 \
	updateTestStepSize   yes \
	alphaTreduceFactor   0.1 \
	alphaTincreaseFactor 3 \
	nAlphaAdjustMax      3 \
	wolfeEnergy          0.0001 \
	wolfeGradient        0.9 \
	fdTest               no
exchange-regularization WignerSeitzTruncated
fluid LinearPCM 298.000000 1.013250
fluid-anion F- 0.5 MeanFieldLJ \
	epsBulk 1 \
	pMol 0 \
	epsInf 1 \
	Pvap 0 \
	sigmaBulk 0 \
	Rvdw 2.24877 \
	Res 0 \
	tauNuc 343133
fluid-cation Na+ 0.5 MeanFieldLJ \
	epsBulk 1 \
	pMol 0 \
	epsInf 1 \
	Pvap 0 \
	sigmaBulk 0 \
	Rvdw 2.19208 \
	Res 0 \
	tauNuc 343133
fluid-ex-corr lda-TF lda-PZ
fluid-gummel-loop 10 1.000000e-05
fluid-minimize  \
	dirUpdateScheme      PolakRibiere \
	linminMethod         DirUpdateRecommended \
	nIterations          400 \
	history              15 \
	knormThreshold       1e-11 \
	energyDiffThreshold  0 \
	nEnergyDiff          2 \
	alphaTstart          1 \
	alphaTmin            1e-10 \
	updateTestStepSize   yes \
	alphaTreduceFactor   0.1 \
	alphaTincreaseFactor 3 \
	nAlphaAdjustMax      6 \
	wolfeEnergy          0.0001 \
	wolfeGradient        0.9 \
	fdTest               no
fluid-solvent H2O 55.338 ScalarEOS \
	epsBulk 78.4 \
	pMol 0.92466 \
	epsInf 1.77 \
	Pvap 1.06736e-10 \
	sigmaBulk 4.62e-05 \
	Rvdw 2.61727 \
	Res 1.42 \
	tauNuc 343133 \
	poleEl 15 7 1
forces-output-coords Positions
initial-state jdft.$VAR
ion C  -0.007454488017512   0.085058557213497  43.322684109058137 1
ion C  21.041813473707297   4.043158592672630  43.293615925327778 1
ion C  18.693756981719563   8.049291605328781  43.188745361144392 1
ion C  -7.052932005228888  12.050308504330239  43.177118573318801 1
ion C  -9.378103175351090  16.065044087184937  43.270595457637270 1
ion C   4.677932238683261   0.197959183391724   0.089570214594117 1
ion C   2.286971612535631   4.207821901715295   0.173720395357744 1
ion C  -0.127616687411839   8.029273699567387   0.111685110776187 1
ion C  -2.446399128867260  12.042050388397476  43.246505528991072 1
ion C  -4.735287212441095  16.071898021057308  43.259865890149889 1
ion C   9.369927168153417   0.086059460134655  43.284152452668984 1
ion C   7.084852571309279   4.194520245366925   0.122986207556251 1
ion C  -0.043807164571685  15.974036396341351   0.058515018640957 1
ion C   2.340762953591250  19.928008870319260  43.292525257577871 1
ion C  11.756183658555210   4.028836378857918  43.241332549715572 1
ion C   9.475355358899051   8.016197151115202   0.049272115406689 1
ion C   4.664407827265117  15.828248205552716   0.166098928965415 1
ion C   6.991579724256660  19.932848315583144  43.312704430047042 1
ion C  16.399030536063243   4.014850400743537  43.222327326314058 1
ion C  14.092883093682790   8.041234040356068  43.170462040370694 1
ion C  11.773616372291636  12.043372548205681  43.248792884274486 1
ion C   9.368678496173354  15.977190307137421   0.073400386450924 1
ion C  -0.020968393432910   2.772785100642380   0.086098070862124 1
ion C  -2.428374102935956   6.701712520027560  43.267797612552798 1
ion C  -4.751256868635397  10.702034003796067  43.181448128481470 1
ion C  -7.054927232618019  14.728711917393927  43.229964034942697 1
ion C  -9.379765422932099  18.753914858998687  43.319169898491211 1
ion C   4.680070706147774   2.916183531179954   0.157515623715127 1
ion C  -0.137695026136087  10.729457291690155   0.103610552768029 1
ion C  -2.412912446484738  14.715465964940591  43.269686423164700 1
ion C  -4.728702914534346  18.758407793544436  43.302001585355121 1
ion C   9.388959389210990   2.767615343052276   0.027103769287791 1
ion C   2.260353664412817  14.539833423239804   0.167072667023048 1
ion C  -0.023160487186331  18.656016256015313  43.288070587493436 1
ion C  14.079392487298104   2.672788033968485  43.242687730579128 1
ion C  11.786024012025738   6.703234859879848  43.219819777676250 1
ion C   9.470748682497607  10.718939753123333   0.073297687935244 1
ion C   7.060843110208648  14.545263376899708   0.157614826142509 1
ion C   4.666897505734745  18.546502068174245   0.085083239784505 1
ion C  18.723180202386057   2.680045967928490  43.268579166243669 1
ion C  16.396211587896413   6.693141191446246  43.174840058490702 1
ion C  14.085995974181412  10.712179459545748  43.178755992264655 1
ion C  11.739691096029050  14.720564852896530  43.282413163553805 1
ion C   9.355068668730482  18.664046083955764  43.318392177672429 1
ion C   4.940150743349235   8.321998212487099   5.404308644780841 1
ion N   2.127690873922018  11.956939883092298   0.265155575697462 1
ion N   7.190462749933648  11.947040246963894   0.223432132143906 1
ion N   2.160047386262889   6.810966067051792   0.265642154305215 1
ion N   7.207362245192918   6.776468633931046   0.194564316137826 1
ion Ti   4.719474706942229   9.358375321921292   1.684851991477319 1
ion O   4.086255697753693  10.658716764666249   5.147549773704521 1
ion O   5.296576215002678   7.184803072111348   7.424171985909272 1
ion O   7.227938895247406   2.447641279708594   6.731854627330509 1
ion H   6.445155702770835   4.168269413874198   6.890447648357788 1
ion H   5.796869386761146   1.317088591279708   6.398658211331263 1
ion-species /projects/musgravc/apps/jdftx-1.6.0/build/pseudopotentials/GBRV_v1.5/$ID_pbe_v1.uspp
ion-species /projects/musgravc/apps/jdftx-1.6.0/build/pseudopotentials/GBRV_v1.5/$ID_pbe_v1.2.uspp
ion-species /projects/musgravc/apps/jdftx-1.6.0/build/pseudopotentials/GBRV_v1.5/$ID_pbe_v1.4.uspp
ion-species /projects/musgravc/apps/jdftx-1.6.0/build/pseudopotentials/GBRV_v1.5/$ID_pbe_v1.5.uspp
ion-width Ecut
ionic-minimize  \
	dirUpdateScheme      L-BFGS \
	linminMethod         DirUpdateRecommended \
	nIterations          100 \
	history              15 \
	knormThreshold       0.0001 \
	energyDiffThreshold  1e-06 \
	nEnergyDiff          2 \
	alphaTstart          1 \
	alphaTmin            1e-10 \
	updateTestStepSize   yes \
	alphaTreduceFactor   0.1 \
	alphaTincreaseFactor 1 \
	nAlphaAdjustMax      1 \
	wolfeEnergy          0.0001 \
	wolfeGradient        0.9 \
	fdTest               no
kpoint   0.000000000000   0.000000000000   0.000000000000  1.00000000000000
kpoint-folding 3 3 1 
latt-move-scale 0 0 0
latt-scale 1 1 1 
lattice  \
	  23.436261999999999  -11.733459000000000    0.000000000000000  \
	   0.017994000000000   19.941849000000001    0.000000000000000  \
	   0.000000000000000    0.000000000000000   43.256312999999999 
lattice-minimize  \
	dirUpdateScheme      L-BFGS \
	linminMethod         DirUpdateRecommended \
	nIterations          0 \
	history              15 \
	knormThreshold       0 \
	energyDiffThreshold  1e-06 \
	nEnergyDiff          2 \
	alphaTstart          1 \
	alphaTmin            1e-10 \
	updateTestStepSize   yes \
	alphaTreduceFactor   0.1 \
	alphaTincreaseFactor 3 \
	nAlphaAdjustMax      3 \
	wolfeEnergy          0.0001 \
	wolfeGradient        0.9 \
	fdTest               no
lcao-params 30 1e-06 0.001
pcm-variant CANDLE
spintype z-spin
subspace-rotation-factor 1 yes
symmetries none
symmetry-threshold 0.0001
van-der-waals D3


Applied RMS atom displacement 0 bohrs to make symmetries exact.

---------- Initializing the Grid ----------
R = 
[      23.4363     -11.7335            0  ]
[     0.017994      19.9418            0  ]
[            0            0      43.2563  ]
unit cell volume = 20225.5
G =
[   0.267976   0.157673         -0  ]
[ -0.000241801   0.314933          0  ]
[          0         -0   0.145255  ]
Minimum fftbox size, Smin = [  96  96  176  ]
Chosen fftbox size, S = [  96  96  180  ]

---------- Exchange Correlation functional ----------
Initalized PBE GGA exchange.
Initalized PBE GGA correlation.

---------- Setting up pseudopotentials ----------
Width of ionic core gaussian charges (only for fluid interactions / plotting) set to 0.397384

Reading pseudopotential file '/projects/musgravc/apps/jdftx-1.6.0/build/pseudopotentials/GBRV_v1.5/c_pbe_v1.2.uspp':
  Title: C.  Created by USPP 7.3.6 on 3-2-2014
  Reference state energy: -5.406344.  4 valence electrons in orbitals:
    |200>  occupation: 2  eigenvalue: -0.504890
    |210>  occupation: 2  eigenvalue: -0.194356
  lMax: 1  lLocal: 2  QijEcut: 5
  4 projectors sampled on a log grid with 503 points:
    l: 0  eig: -0.504890  rCut: 1.3
    l: 0  eig: 0.000000  rCut: 1.3
    l: 1  eig: -0.194357  rCut: 1.3
    l: 1  eig: 0.000000  rCut: 1.3
  Partial core density with radius 1.1
  Transforming core density to a uniform radial grid of dG=0.02 with 1464 points.
  Transforming local potential to a uniform radial grid of dG=0.02 with 1464 points.
  Transforming nonlocal projectors to a uniform radial grid of dG=0.02 with 432 points.
  Transforming density augmentations to a uniform radial grid of dG=0.02 with 1464 points.
  Transforming atomic orbitals to a uniform radial grid of dG=0.02 with 432 points.
  Core radius for overlap checks: 1.30 bohrs.

Reading pseudopotential file '/projects/musgravc/apps/jdftx-1.6.0/build/pseudopotentials/GBRV_v1.5/n_pbe_v1.2.uspp':
  Title: N.  Created by USPP 7.3.6 on 3-2-2014
  Reference state energy: -9.763716.  5 valence electrons in orbitals:
    |200>  occupation: 2  eigenvalue: -0.681964
    |210>  occupation: 3  eigenvalue: -0.260726
  lMax: 1  lLocal: 2  QijEcut: 6
  4 projectors sampled on a log grid with 491 points:
    l: 0  eig: -0.681964  rCut: 1.15
    l: 0  eig: 0.000000  rCut: 1.15
    l: 1  eig: -0.260729  rCut: 1.2
    l: 1  eig: 0.500000  rCut: 1.2
  Partial core density with radius 0.8
  Transforming core density to a uniform radial grid of dG=0.02 with 1464 points.
  Transforming local potential to a uniform radial grid of dG=0.02 with 1464 points.
  Transforming nonlocal projectors to a uniform radial grid of dG=0.02 with 432 points.
  Transforming density augmentations to a uniform radial grid of dG=0.02 with 1464 points.
  Transforming atomic orbitals to a uniform radial grid of dG=0.02 with 432 points.
  Core radius for overlap checks: 1.20 bohrs.

Reading pseudopotential file '/projects/musgravc/apps/jdftx-1.6.0/build/pseudopotentials/GBRV_v1.5/ti_pbe_v1.4.uspp':
  Title: Ti.  Created by USPP 7.3.6 on 31-3-15
  Reference state energy: -59.020943.  12 valence electrons in orbitals:
    |300>  occupation: 2  eigenvalue: -2.777623
    |310>  occupation: 6  eigenvalue: -1.894596
    |400>  occupation: 2  eigenvalue: -0.438610
    |320>  occupation: 1  eigenvalue: -0.583119
  lMax: 2  lLocal: 3  QijEcut: 6
  6 projectors sampled on a log grid with 597 points:
    l: 0  eig: -2.777624  rCut: 1.8
    l: 0  eig: -0.438611  rCut: 1.8
    l: 1  eig: -1.894596  rCut: 1.8
    l: 1  eig: 0.500000  rCut: 1.8
    l: 2  eig: -0.583118  rCut: 1.8
    l: 2  eig: 0.150000  rCut: 1.8
  Partial core density with radius 0.8
  Transforming core density to a uniform radial grid of dG=0.02 with 1464 points.
  Transforming local potential to a uniform radial grid of dG=0.02 with 1464 points.
  Transforming nonlocal projectors to a uniform radial grid of dG=0.02 with 432 points.
  Transforming density augmentations to a uniform radial grid of dG=0.02 with 1464 points.
  Transforming atomic orbitals to a uniform radial grid of dG=0.02 with 432 points.
  Core radius for overlap checks: 1.80 bohrs.

Reading pseudopotential file '/projects/musgravc/apps/jdftx-1.6.0/build/pseudopotentials/GBRV_v1.5/o_pbe_v1.2.uspp':
  Title: O.  Created by USPP 7.3.6 on 3-2-2014
  Reference state energy: -15.894388.  6 valence electrons in orbitals:
    |200>  occupation: 2  eigenvalue: -0.878823
    |210>  occupation: 4  eigenvalue: -0.332131
  lMax: 2  lLocal: 2  QijEcut: 6
  5 projectors sampled on a log grid with 511 points:
    l: 0  eig: -0.878823  rCut: 1.25
    l: 0  eig: 0.000000  rCut: 1.25
    l: 1  eig: -0.332132  rCut: 1.25
    l: 1  eig: 0.000000  rCut: 1.25
    l: 2  eig: 1.000000  rCut: 1.25
  Partial core density with radius 0.7
  Transforming core density to a uniform radial grid of dG=0.02 with 1464 points.
  Transforming local potential to a uniform radial grid of dG=0.02 with 1464 points.
  Transforming nonlocal projectors to a uniform radial grid of dG=0.02 with 432 points.
  Transforming density augmentations to a uniform radial grid of dG=0.02 with 1464 points.
  Transforming atomic orbitals to a uniform radial grid of dG=0.02 with 432 points.
  Core radius for overlap checks: 1.25 bohrs.

Reading pseudopotential file '/projects/musgravc/apps/jdftx-1.6.0/build/pseudopotentials/GBRV_v1.5/h_pbe_v1.4.uspp':
  Title: H.  Created by USPP 7.3.6 on 2-4-15
  Reference state energy: -0.458849.  1 valence electrons in orbitals:
    |100>  occupation: 1  eigenvalue: -0.238595
  lMax: 0  lLocal: 1  QijEcut: 6
  2 projectors sampled on a log grid with 395 points:
    l: 0  eig: -0.238595  rCut: 1.2
    l: 0  eig: 1.000000  rCut: 1.2
  Transforming local potential to a uniform radial grid of dG=0.02 with 1464 points.
  Transforming nonlocal projectors to a uniform radial grid of dG=0.02 with 432 points.
  Transforming density augmentations to a uniform radial grid of dG=0.02 with 1464 points.
  Transforming atomic orbitals to a uniform radial grid of dG=0.02 with 432 points.
  Core radius for overlap checks: 1.20 bohrs.

Initialized 5 species with 55 total atoms.

Folded 1 k-points by 3x3x1 to 9 k-points.

---------- Setting up k-points, bands, fillings ----------
No reducable k-points. 
Computing the number of bands and number of electrons
Reading initial fillings from file jdft.fillings.
nElectrons: 232.000000   nBands: 140   nStates: 18

----- Setting up reduced wavefunction bases (one per k-point) -----
average nbasis = 86412.556 , ideal nbasis = 86404.907

----- Initializing Supercell corresponding to k-point mesh -----
Lattice vector linear combinations in supercell:
[   3   0   0  ]
[   0   3   0  ]
[   0   0   1  ]
Supercell lattice vectors:
[  70.3088  -35.2004  0  ]
[  0.053982  59.8255  0  ]
[  0  0  43.2563  ]

Initializing DFT-D3 calculator:
	Parameters set for gga-PBE functional
	s6:  1.000  s_r6:  1.217
	s8:  0.722  s_r8:  1.000
	Per-atom parameters loaded for:
	 C:  sqrtQ[a0]:  3.105  Rcov[a0]:  1.417  CN: [ 0.00 0.99 2.00 3.00 3.98 ]
	 N:  sqrtQ[a0]:  2.712  Rcov[a0]:  1.342  CN: [ 0.00 0.99 2.01 2.99 ]
	Ti:  sqrtQ[a0]:  6.288  Rcov[a0]:  2.305  CN: [ 0.00 1.83 3.87 ]
	 O:  sqrtQ[a0]:  2.594  Rcov[a0]:  1.191  CN: [ 0.00 0.99 1.99 ]
	 H:  sqrtQ[a0]:  2.007  Rcov[a0]:  0.605  CN: [ 0.91 0.00 ]

Initializing DFT-D2 calculator for fluid / solvation:
	 C:  C6:   30.35 Eh-a0^6  R0: 2.744 a0
	 N:  C6:   21.33 Eh-a0^6  R0: 2.640 a0
	Ti:  C6:  187.33 Eh-a0^6  R0: 2.952 a0
	 O:  C6:   12.14 Eh-a0^6  R0: 2.536 a0
	 H:  C6:    2.43 Eh-a0^6  R0: 1.892 a0

---------- Setting up ewald sum ----------
Optimum gaussian width for ewald sums = 5.573775 bohr.
Real space sum over 567 unit cells with max indices [  4  4  3  ]
Reciprocal space sum over 7803 terms with max indices [  8  8  13  ]

Computing DFT-D3 correction:
# coordination-number C 3.301 3.322 3.335 3.333 3.313 3.290 3.326 3.579 3.331 3.314 3.304 3.333 3.306 3.301 3.326 3.617 3.265 3.300 3.319 3.335 3.328 3.303 3.302 3.328 3.336 3.319 3.300 3.268 3.570 3.326 3.302 3.307 3.325 3.303 3.314 3.331 3.618 3.327 3.289 3.313 3.333 3.335 3.322 3.301 3.000
# coordination-number N 3.178 3.178 3.176 3.183
# coordination-number Ti 7.480
# coordination-number O 2.000 1.051 1.982
# coordination-number H 1.002 0.993
# diagonal-C6 C 24.28 24.06 23.92 23.94 24.16 24.37 24.02 20.54 23.96 24.14 24.25 23.94 24.22 24.27 24.02 20.07 24.59 24.28 24.09 23.92 23.99 24.25 24.26 24.00 23.91 24.09 24.28 24.57 20.65 24.02 24.27 24.21 24.03 24.26 24.15 23.97 20.06 24.01 24.38 24.16 23.94 23.92 24.06 24.27 25.67
# diagonal-C6 N 15.60 15.60 15.60 15.60
# diagonal-C6 Ti 321.59
# diagonal-C6 O 10.41 12.77 10.41
# diagonal-C6 H 3.09 3.09
EvdW_6 =   -0.044039
EvdW_8 =   -0.033561

---------- Allocating electronic variables ----------
Initializing wave functions:  reading from 'jdft.wfns'
----- createFluidSolver() ----- (Fluid-side solver setup)
   Initializing fluid molecule 'H2O'
     Initializing site 'O'
       Electron density: proportional to exp(-r/0.36935)*erfc((r-0.51523)/0.36823) with norm 6.826
       Charge density: gaussian nuclear width 0.478731 with net site charge 0.826
       Polarizability: cuspless exponential with width 0.32 and norm 3.73
       Hard sphere radius: 2.57003 bohrs
       Positions in reference frame:
         [ +0.000000 +0.000000 +0.000000 ]
     Initializing site 'H'
       Electron density: proportional to exp(-r/0.34641)*erfc((r-0)/0.390882) with norm 0.587
       Charge density: gaussian nuclear width 0.377945 with net site charge -0.413
       Polarizability: cuspless exponential with width 0.39 and norm 3.3
       Positions in reference frame:
         [ +0.000000 -1.441945 +1.122523 ]
         [ +0.000000 +1.441945 +1.122523 ]
     Net charge: 0   dipole magnitude: 0.927204
     Initializing spherical shell mfKernel with radius 2.61727 Bohr
     deltaS corrections:
       site 'O': -7.54299
       site 'H': -6.83917
   Initializing fluid molecule 'Na+'
     Initializing site 'Na'
       Electron density: proportional to exp(-r/0.19682)*erfc((r-0.71491)/0.41314) with norm 8.1383
       Charge density: gaussian nuclear width 0.365347 with net site charge -1
       Hard sphere radius: 1.86327 bohrs
       Positions in reference frame:
         [ +0.000000 +0.000000 +0.000000 ]
     Net charge: -1   dipole magnitude: 0
     Initializing gaussian mfKernel with width: 1.55004 Bohr
     deltaS corrections:
       site 'Na': -22.3555
   Initializing fluid molecule 'F-'
     Initializing site 'F'
       Electron density: proportional to exp(-r/0.38886)*erfc((r-0)/0.438782) with norm 8
       Charge density: gaussian nuclear width 0.374796 with net site charge 1
       Hard sphere radius: 2.39995 bohrs
       Positions in reference frame:
         [ +0.000000 +0.000000 +0.000000 ]
     Net charge: 1   dipole magnitude: 0
     Initializing gaussian mfKernel with width: 1.59012 Bohr
     deltaS corrections:
       site 'F': -9.04335

Correction to mu due to finite nuclear width = -0.0113812
   Cavity determined by nc: 0.00142 and sigma: 0.707107
   Nonlocal vdW cavity from gaussian model electron density with norm = 8 and sigma = 0.993594 bohr
   Charge asymmetry in cavity with sensitivity pCavity = 36.5 e-bohr/Eh
   Electrostatic cavity expanded by eta = 1.46 bohrs
   Weighted density cavitation model constrained by Nbulk: 0.0049383 bohr^-3, Pvap: 3.14029 kPa, Rvdw: 2.61727 bohr and sigmaBulk: 4.62e-05 Eh/bohr^2 at T: 298 K.
   Weighted density dispersion model using vdW pair potentials with single solvent site with sqrtC6eff: 0.77 SI.
Reading fluid state from 'jdft.fluidState'


---- Citations for features of the code used in this run ----

   Software package:
      R. Sundararaman, K. Letchworth-Weaver, K.A. Schwarz, D. Gunceler, Y. Ozhabes and T.A. Arias, 'JDFTx: software for joint density-functional theory', SoftwareX 6, 278 (2017)

   gga-PBE exchange-correlation functional:
      J.P. Perdew, K. Burke and M. Ernzerhof, Phys. Rev. Lett. 77, 3865 (1996)

   Pseudopotentials:
      KF Garrity, JW Bennett, KM Rabe and D Vanderbilt, Comput. Mater. Sci. 81, 446 (2014)

   DFT-D3 dispersion correction:
      S. Grimme, J. Antony, S. Ehrlich and H. Krieg, J. Chem. Phys. 132, 154104 (2010)

   DFT-D2 dispersion correction:
      S. Grimme, J. Comput. Chem. 27, 1787 (2006)

   Charge-asymmetric nonlocally-determined local-electric (CANDLE) solvation model:
      R. Sundararaman and W.A. Goddard III, J. Chem. Phys. 142, 064107 (2015)

   Total energy minimization with Auxiliary Hamiltonian:
      C. Freysoldt, S. Boeck, and J. Neugebauer, Phys. Rev. B 79, 241103(R) (2009)

   Linear-tetrahedron sampling for density of states:
      G. Lehmann and M. Taut, Phys. status solidi (b) 54, 469 (1972)

This list may not be complete. Please suggest additional citations or
report any other bugs at https://github.com/shankar1729/jdftx/issues

Initialization completed successfully at t[s]:     23.52


Computing DFT-D3 correction:
# coordination-number C 3.301 3.322 3.335 3.333 3.313 3.290 3.326 3.579 3.331 3.314 3.304 3.333 3.306 3.301 3.326 3.617 3.265 3.300 3.319 3.335 3.328 3.303 3.302 3.328 3.336 3.319 3.300 3.268 3.570 3.326 3.302 3.307 3.325 3.303 3.314 3.331 3.618 3.327 3.289 3.313 3.333 3.335 3.322 3.301 3.000
# coordination-number N 3.178 3.178 3.176 3.183
# coordination-number Ti 7.480
# coordination-number O 2.000 1.051 1.982
# coordination-number H 1.002 0.993
# diagonal-C6 C 24.28 24.06 23.92 23.94 24.16 24.37 24.02 20.54 23.96 24.14 24.25 23.94 24.22 24.27 24.02 20.07 24.59 24.28 24.09 23.92 23.99 24.25 24.26 24.00 23.91 24.09 24.28 24.57 20.65 24.02 24.27 24.21 24.03 24.26 24.15 23.97 20.06 24.01 24.38 24.16 23.94 23.92 24.06 24.27 25.67
# diagonal-C6 N 15.60 15.60 15.60 15.60
# diagonal-C6 Ti 321.59
# diagonal-C6 O 10.41 12.77 10.41
# diagonal-C6 H 3.09 3.09
EvdW_6 =   -0.044039
EvdW_8 =   -0.033561

-------- Electronic minimization -----------
	Linear fluid (dielectric constant: 78.4, screening length: 8.12261 Bohr) occupying 0.712592 of unit cell:	Completed after 2 iterations at t[s]:     53.12
	FillingsUpdate:  mu: -0.163343888  nElectrons: 232.000000  magneticMoment: [ Abs: 0.00012  Tot: +0.00000 ]
ElecMinimize: Iter:   0  F: -404.809858582132392  |grad|_K:  6.040e-08  alpha:  1.000e+00
	Linear fluid (dielectric constant: 78.4, screening length: 8.12261 Bohr) occupying 0.712591 of unit cell:	Completed after 3 iterations at t[s]:    162.98
	Linear fluid (dielectric constant: 78.4, screening length: 8.12261 Bohr) occupying 0.712592 of unit cell:	Completed after 3 iterations at t[s]:    203.50
	FillingsUpdate:  mu: -0.163316046  nElectrons: 232.000000  magneticMoment: [ Abs: 0.00011  Tot: +0.00000 ]
	SubspaceRotationAdjust: set factor to 0.572
ElecMinimize: Iter:   1  F: -404.809858733110275  |grad|_K:  1.731e-08  alpha:  1.683e-01  linmin:  5.138e-04  t[s]:    256.73
	Linear fluid (dielectric constant: 78.4, screening length: 8.12261 Bohr) occupying 0.712592 of unit cell:	Completed after 0 iterations at t[s]:    302.50
ElecMinimize: 	Predicted alpha/alphaT>3.000000, increasing alphaT to 5.047604e-01.
	Linear fluid (dielectric constant: 78.4, screening length: 8.12261 Bohr) occupying 0.712592 of unit cell:	Completed after 1 iterations at t[s]:    342.86
	Linear fluid (dielectric constant: 78.4, screening length: 8.12261 Bohr) occupying 0.712592 of unit cell:	Completed after 0 iterations at t[s]:    381.93
	FillingsUpdate:  mu: -0.163322703  nElectrons: 232.000000  magneticMoment: [ Abs: 0.00009  Tot: +0.00000 ]
	SubspaceRotationAdjust: set factor to 0.254
ElecMinimize: Iter:   2  F: -404.809858746637474  |grad|_K:  7.833e-09  alpha:  2.505e-01  linmin:  4.438e-03  t[s]:    436.79
	Linear fluid (dielectric constant: 78.4, screening length: 8.12261 Bohr) occupying 0.712592 of unit cell:	Completed after 0 iterations at t[s]:    483.46
	Linear fluid (dielectric constant: 78.4, screening length: 8.12261 Bohr) occupying 0.712592 of unit cell:	Completed after 0 iterations at t[s]:    522.43
ElecMinimize: 	Step increased F by 8.132304e-09, reducing alpha to 5.398479e-03.
	Linear fluid (dielectric constant: 78.4, screening length: 8.12261 Bohr) occupying 0.712592 of unit cell:	Completed after 0 iterations at t[s]:    611.67
ElecMinimize: 	Step increased F by 8.804989e-09, reducing alpha to 5.398479e-04.
	Linear fluid (dielectric constant: 78.4, screening length: 8.12261 Bohr) occupying 0.712592 of unit cell:	Completed after 0 iterations at t[s]:    701.56
ElecMinimize: 	Step increased F by 8.882921e-09, reducing alpha to 5.398479e-05.
ElecMinimize: 	Step failed to reduce F after 3 attempts. Quitting step.
ElecMinimize: 	Undoing step.
	Linear fluid (dielectric constant: 78.4, screening length: 8.12261 Bohr) occupying 0.712592 of unit cell:	Completed after 0 iterations at t[s]:    791.51
ElecMinimize: 	Step failed: resetting search direction.
	FillingsUpdate:  mu: -0.163323425  nElectrons: 232.000000  magneticMoment: [ Abs: 0.00009  Tot: +0.00000 ]
	SubspaceRotationAdjust: set factor to 0.463
ElecMinimize: Iter:   3  F: -404.809858737735794  |grad|_K:  5.508e-09  alpha:  5.398e-05
	Linear fluid (dielectric constant: 78.4, screening length: 8.12261 Bohr) occupying 0.712592 of unit cell:	Completed after 0 iterations at t[s]:    893.71
ElecMinimize: 	Predicted alpha/alphaT>3.000000, increasing alphaT to 7.514152e-01.
	Linear fluid (dielectric constant: 78.4, screening length: 8.12261 Bohr) occupying 0.712592 of unit cell:	Completed after 0 iterations at t[s]:    931.89
	Linear fluid (dielectric constant: 78.4, screening length: 8.12261 Bohr) occupying 0.712592 of unit cell:	Completed after 0 iterations at t[s]:    970.33
	FillingsUpdate:  mu: -0.163323534  nElectrons: 232.000000  magneticMoment: [ Abs: 0.00006  Tot: +0.00000 ]
	SubspaceRotationAdjust: set factor to 0.519
ElecMinimize: Iter:   4  F: -404.809858745306997  |grad|_K:  4.760e-09  alpha:  1.146e+00  linmin: -1.366e-04  t[s]:   1024.12
	Linear fluid (dielectric constant: 78.4, screening length: 8.12261 Bohr) occupying 0.712592 of unit cell:	Completed after 1 iterations at t[s]:   1072.94
	Linear fluid (dielectric constant: 78.4, screening length: 8.12261 Bohr) occupying 0.712592 of unit cell:	Completed after 0 iterations at t[s]:   1111.22
ElecMinimize: 	Step increased F by 7.600363e-09, reducing alpha to 1.111198e-02.
	Linear fluid (dielectric constant: 78.4, screening length: 8.12261 Bohr) occupying 0.712592 of unit cell:	Completed after 0 iterations at t[s]:   1200.50
ElecMinimize: 	Step increased F by 4.209255e-09, reducing alpha to 1.111198e-03.
	Linear fluid (dielectric constant: 78.4, screening length: 8.12261 Bohr) occupying 0.712592 of unit cell:	Completed after 0 iterations at t[s]:   1290.09
ElecMinimize: 	Step increased F by 3.895707e-09, reducing alpha to 1.111198e-04.
ElecMinimize: 	Step failed to reduce F after 3 attempts. Quitting step.
ElecMinimize: 	Undoing step.
	Linear fluid (dielectric constant: 78.4, screening length: 8.12261 Bohr) occupying 0.712592 of unit cell:	Completed after 0 iterations at t[s]:   1380.04
ElecMinimize: 	Step failed: resetting search direction.
	FillingsUpdate:  mu: -0.163308867  nElectrons: 232.000000  magneticMoment: [ Abs: 0.00006  Tot: +0.00000 ]
	SubspaceRotationAdjust: set factor to 0.472
ElecMinimize: Iter:   5  F: -404.809858741410778  |grad|_K:  1.939e-08  alpha:  1.111e-04
	Linear fluid (dielectric constant: 78.4, screening length: 8.12261 Bohr) occupying 0.712591 of unit cell:	Completed after 3 iterations at t[s]:   1483.86
	Linear fluid (dielectric constant: 78.4, screening length: 8.12261 Bohr) occupying 0.712592 of unit cell:	Completed after 1 iterations at t[s]:   1523.72
	FillingsUpdate:  mu: -0.163329471  nElectrons: 232.000000  magneticMoment: [ Abs: 0.00006  Tot: +0.00000 ]
	SubspaceRotationAdjust: set factor to 0.237
ElecMinimize: Iter:   6  F: -404.809858742706581  |grad|_K:  1.031e-08  alpha:  2.315e-01  linmin:  8.726e-03  t[s]:   1578.97
	Linear fluid (dielectric constant: 78.4, screening length: 8.12261 Bohr) occupying 0.712592 of unit cell:	Completed after 0 iterations at t[s]:   1625.07
ElecMinimize: 	Predicted alpha/alphaT>3.000000, increasing alphaT to 6.944633e-01.
	Linear fluid (dielectric constant: 78.4, screening length: 8.12261 Bohr) occupying 0.712592 of unit cell:	Completed after 0 iterations at t[s]:   1663.93
	Linear fluid (dielectric constant: 78.4, screening length: 8.12261 Bohr) occupying 0.712592 of unit cell:	Completed after 0 iterations at t[s]:   1702.69
	FillingsUpdate:  mu: -0.163324814  nElectrons: 232.000000  magneticMoment: [ Abs: 0.00004  Tot: +0.00000 ]
	SubspaceRotationAdjust: set factor to 0.199
ElecMinimize: Iter:   7  F: -404.809858745767826  |grad|_K:  5.902e-09  alpha:  4.730e-01  linmin: -6.269e-03  t[s]:   1756.82
ElecMinimize: Converged (|Delta F|<1.000000e-07 for 2 iters).
Setting wave functions to eigenvectors of Hamiltonian
Converging empty states (this may take a while): |deigs|: 2.941e-09

Computing DFT-D3 correction:
# coordination-number C 3.301 3.322 3.335 3.333 3.313 3.290 3.326 3.579 3.331 3.314 3.304 3.333 3.306 3.301 3.326 3.617 3.265 3.300 3.319 3.335 3.328 3.303 3.302 3.328 3.336 3.319 3.300 3.268 3.570 3.326 3.302 3.307 3.325 3.303 3.314 3.331 3.618 3.327 3.289 3.313 3.333 3.335 3.322 3.301 3.000
# coordination-number N 3.178 3.178 3.176 3.183
# coordination-number Ti 7.480
# coordination-number O 2.000 1.051 1.982
# coordination-number H 1.002 0.993
# diagonal-C6 C 24.28 24.06 23.92 23.94 24.16 24.37 24.02 20.54 23.96 24.14 24.25 23.94 24.22 24.27 24.02 20.07 24.59 24.28 24.09 23.92 23.99 24.25 24.26 24.00 23.91 24.09 24.28 24.57 20.65 24.02 24.27 24.21 24.03 24.26 24.15 23.97 20.06 24.01 24.38 24.16 23.94 23.92 24.06 24.27 25.67
# diagonal-C6 N 15.60 15.60 15.60 15.60
# diagonal-C6 Ti 321.59
# diagonal-C6 O 10.41 12.77 10.41
# diagonal-C6 H 3.09 3.09
EvdW_6 =   -0.044039
EvdW_8 =   -0.033561

# Ionic positions in cartesian coordinates:
ion C  -0.007454488017512   0.085058557213497  43.322684109058137 1
ion C  21.041813473707297   4.043158592672630  43.293615925327778 1
ion C  18.693756981719563   8.049291605328781  43.188745361144392 1
ion C  -7.052932005228888  12.050308504330239  43.177118573318801 1
ion C  -9.378103175351090  16.065044087184937  43.270595457637270 1
ion C   4.677932238683261   0.197959183391724   0.089570214594117 1
ion C   2.286971612535631   4.207821901715295   0.173720395357744 1
ion C  -0.127616687411839   8.029273699567387   0.111685110776187 1
ion C  -2.446399128867260  12.042050388397476  43.246505528991072 1
ion C  -4.735287212441095  16.071898021057308  43.259865890149889 1
ion C   9.369927168153417   0.086059460134655  43.284152452668984 1
ion C   7.084852571309279   4.194520245366925   0.122986207556251 1
ion C  -0.043807164571685  15.974036396341351   0.058515018640957 1
ion C   2.340762953591250  19.928008870319260  43.292525257577871 1
ion C  11.756183658555210   4.028836378857918  43.241332549715572 1
ion C   9.475355358899051   8.016197151115202   0.049272115406689 1
ion C   4.664407827265117  15.828248205552716   0.166098928965415 1
ion C   6.991579724256660  19.932848315583144  43.312704430047042 1
ion C  16.399030536063243   4.014850400743537  43.222327326314058 1
ion C  14.092883093682790   8.041234040356068  43.170462040370694 1
ion C  11.773616372291636  12.043372548205681  43.248792884274486 1
ion C   9.368678496173354  15.977190307137421   0.073400386450924 1
ion C  -0.020968393432910   2.772785100642380   0.086098070862124 1
ion C  -2.428374102935956   6.701712520027560  43.267797612552798 1
ion C  -4.751256868635397  10.702034003796067  43.181448128481470 1
ion C  -7.054927232618019  14.728711917393927  43.229964034942697 1
ion C  -9.379765422932099  18.753914858998687  43.319169898491211 1
ion C   4.680070706147774   2.916183531179954   0.157515623715127 1
ion C  -0.137695026136087  10.729457291690155   0.103610552768029 1
ion C  -2.412912446484738  14.715465964940591  43.269686423164700 1
ion C  -4.728702914534346  18.758407793544436  43.302001585355121 1
ion C   9.388959389210990   2.767615343052276   0.027103769287791 1
ion C   2.260353664412817  14.539833423239804   0.167072667023048 1
ion C  -0.023160487186331  18.656016256015313  43.288070587493436 1
ion C  14.079392487298104   2.672788033968485  43.242687730579128 1
ion C  11.786024012025738   6.703234859879848  43.219819777676250 1
ion C   9.470748682497607  10.718939753123333   0.073297687935244 1
ion C   7.060843110208648  14.545263376899708   0.157614826142509 1
ion C   4.666897505734745  18.546502068174245   0.085083239784505 1
ion C  18.723180202386057   2.680045967928490  43.268579166243669 1
ion C  16.396211587896413   6.693141191446246  43.174840058490702 1
ion C  14.085995974181412  10.712179459545748  43.178755992264655 1
ion C  11.739691096029050  14.720564852896530  43.282413163553805 1
ion C   9.355068668730482  18.664046083955764  43.318392177672429 1
ion C   4.940150743349235   8.321998212487099   5.404308644780841 1
ion N   2.127690873922018  11.956939883092298   0.265155575697462 1
ion N   7.190462749933648  11.947040246963894   0.223432132143906 1
ion N   2.160047386262889   6.810966067051792   0.265642154305215 1
ion N   7.207362245192918   6.776468633931046   0.194564316137826 1
ion Ti   4.719474706942229   9.358375321921292   1.684851991477319 1
ion O   4.086255697753693  10.658716764666249   5.147549773704521 1
ion O   5.296576215002678   7.184803072111348   7.424171985909272 1
ion O   7.227938895247406   2.447641279708594   6.731854627330509 1
ion H   6.445155702770835   4.168269413874198   6.890447648357788 1
ion H   5.796869386761146   1.317088591279708   6.398658211331263 1

# Forces in Cartesian coordinates:
force C  -0.000217315131056  -0.000101877112954  -0.000055550838547 1
force C  -0.000308364783616  -0.000118164175485   0.000016433772105 1
force C  -0.000365505804593  -0.000100840882931  -0.000045924934238 1
force C  -0.000194779295223  -0.000206231461145   0.000046721949433 1
force C  -0.000117977950527  -0.000090359444338   0.000007554553247 1
force C  -0.000116322790020  -0.000103986469478  -0.000079280138845 1
force C  -0.000060394002503   0.000048895365721  -0.000003720034417 1
force C   0.000115745175584  -0.000186638046476  -0.000057872689060 1
force C   0.000285993060484  -0.000202273260342   0.000039983494865 1
force C  -0.000119732335481  -0.000012657569381   0.000020402706400 1
force C   0.000142149721940   0.000054953083376  -0.000025279391629 1
force C  -0.000006221433055   0.000048168339265  -0.000014570887012 1
force C   0.000163165385756  -0.000223163193325   0.000073618344899 1
force C   0.000095260419194   0.000157202708200   0.000105599836234 1
force C   0.000330052686577   0.000006765204994  -0.000074108102039 1
force C   0.000066037212785  -0.000079280410700  -0.000095855507748 1
force C   0.000036982139333   0.000083353871958   0.000009494237588 1
force C  -0.000144495241269   0.000272505522492   0.000068463809080 1
force C  -0.000005477604954   0.000123956425123   0.000066678511892 1
force C   0.000107638571946  -0.000178229424135  -0.000049876529108 1
force C   0.000087422024141  -0.000021441732416   0.000048828185214 1
force C  -0.000009811163776   0.000268454964322   0.000023459509034 1
force C   0.000212099410143   0.000155094234334  -0.000012905597266 1
force C   0.000307171263321   0.000066370428744  -0.000042466832694 1
force C   0.000000450674129   0.000282401469853   0.000035070134682 1
force C   0.000123406178568   0.000238765709214   0.000073564090860 1
force C   0.000142729495056  -0.000033706325885  -0.000020560597657 1
force C  -0.000014190133381  -0.000088246099977  -0.000081736563854 1
force C  -0.000194962336809  -0.000060256941297  -0.000133208641147 1
force C  -0.000088118289119   0.000052351766333   0.000051509738466 1
force C  -0.000082372177425  -0.000211161673040  -0.000043136141236 1
force C  -0.000124812357195  -0.000368571053237  -0.000096126187460 1
force C  -0.000190753827084  -0.000133550767463  -0.000002373801092 1
force C  -0.000201383605440   0.000076931351334   0.000090510308959 1
force C  -0.000120501148896  -0.000135308125147   0.000034247423669 1
force C   0.000151462402544  -0.000141741127471  -0.000127136083885 1
force C   0.000232380504254  -0.000102754833963  -0.000101197390837 1
force C   0.000082475529437  -0.000046994373598  -0.000037570671583 1
force C  -0.000041578923343   0.000100191504035   0.000055956185242 1
force C   0.000073359589241  -0.000171901843283   0.000104090383705 1
force C   0.000038106166850   0.000165618902339  -0.000017040476948 1
force C   0.000215526683181   0.000376220442105   0.000039677513755 1
force C   0.000135768163369   0.000038812337988   0.000017791017529 1
force C   0.000077645673760  -0.000021262450626   0.000007307968917 1
force C   0.000427833129496  -0.000202373996796   0.000490121956197 1
force N   0.000370164727630  -0.000016499548087   0.000023221513488 1
force N  -0.000090449772874   0.000191695520300  -0.000089969854423 1
force N   0.000311062081873   0.000256935392718   0.000118276672677 1
force N  -0.000117361461230  -0.000044803658000  -0.000055895190785 1
force Ti  -0.000269901185169  -0.000044268462519  -0.000064569891633 1
force O   0.000022042713489  -0.000169142589558   0.000343392028988 1
force O  -0.000180556735480   0.000468922963978  -0.000717114874305 1
force O  -0.000526162539703  -0.000056282661194  -0.000436654769542 1
force H  -0.000021679635034  -0.000256807559486  -0.000318906239772 1
force H   0.000487314354687   0.000232908267429   0.000008617581018 1

# Energy components:
   A_diel =       -0.0265277659566677
   Eewald =     1710.4542155914825798
       EH =     2032.9352339550323450
     Eloc =    -4298.6017154168257548
      Enl =       54.7738502285099784
     EvdW =       -0.0776003141787401
      Exc =     -113.1384446791012977
 Exc_core =        3.3745483994708545
       KE =      205.4966058432728460
  MuShift =       -0.0000000000000133
-------------------------------------
     Etot =     -404.8098341582938247
       TS =        0.0000245874740176
-------------------------------------
        F =     -404.8098587457678263


Dumping 'jdft.fillings' ... done
Dumping 'jdft.wfns' ... done
Dumping 'jdft.fluidState' ... done
Dumping 'jdft.ionpos' ... done
Dumping 'jdft.lattice' ... done
Dumping 'jdft.eigenvals' ... done
Dumping 'jdft.eigStats' ... 
	eMin: -2.291595 at state 9 ( [ +0.000000 +0.000000 +0.000000 ] spin -1 )
	HOMO: -0.168988 at state 13 ( [ +0.333333 +0.333333 +0.000000 ] spin -1 )
	mu  : -0.163325
	LUMO: -0.157840 at state 17 ( [ -0.333333 -0.333333 +0.000000 ] spin -1 )
	eMax: +0.016317 at state 4 ( [ +0.333333 +0.333333 +0.000000 ] spin 1 )
	HOMO-LUMO gap: +0.011147
	Optical gap  : +0.011147 at state 17 ( [ -0.333333 -0.333333 +0.000000 ] spin -1 )
Dumping 'jdft.Ecomponents' ... done
IonicMinimize: Iter:   0  F: -404.809858745767826  |grad|_K:  1.772e-04  t[s]:   1890.79

#--- Lowdin population analysis ---
# oxidation-state C +0.050 +0.064 +0.049 +0.057 +0.046 +0.050 +0.175 +0.142 +0.039 +0.046 +0.050 +0.185 +0.040 +0.055 +0.065 +0.138 +0.004 +0.054 +0.047 +0.049 +0.040 +0.041 +0.039 +0.039 +0.049 +0.046 +0.052 +0.004 +0.143 +0.065 +0.051 +0.041 +0.180 +0.051 +0.049 +0.039 +0.137 +0.177 +0.055 +0.047 +0.058 +0.050 +0.064 +0.051 +0.232
# magnetic-moments C +0.000 -0.000 +0.000 -0.000 -0.000 -0.000 -0.000 -0.000 +0.000 -0.000 -0.000 -0.000 +0.000 +0.000 +0.000 +0.000 +0.000 +0.000 +0.000 +0.000 -0.000 +0.000 +0.000 +0.000 +0.000 +0.000 -0.000 +0.000 -0.000 -0.000 +0.000 -0.000 -0.000 -0.000 -0.000 -0.000 +0.000 -0.000 -0.000 -0.000 -0.000 +0.000 +0.000 +0.000 +0.000
# oxidation-state N -0.301 -0.309 -0.301 -0.296
# magnetic-moments N -0.000 +0.000 +0.000 +0.000
# oxidation-state Ti +1.454
# magnetic-moments Ti -0.000
# oxidation-state O -0.469 -0.456 -0.816
# magnetic-moments O -0.000 +0.000 -0.000
# oxidation-state H +0.393 +0.439
# magnetic-moments H -0.000 +0.000


Computing DFT-D3 correction:
# coordination-number C 3.301 3.322 3.335 3.333 3.313 3.290 3.326 3.579 3.331 3.314 3.304 3.333 3.306 3.301 3.326 3.617 3.265 3.300 3.319 3.335 3.328 3.303 3.302 3.327 3.336 3.319 3.300 3.268 3.570 3.326 3.302 3.307 3.325 3.303 3.314 3.330 3.618 3.327 3.289 3.313 3.333 3.335 3.322 3.301 3.000
# coordination-number N 3.178 3.178 3.176 3.183
# coordination-number Ti 7.480
# coordination-number O 2.000 1.051 1.983
# coordination-number H 1.002 0.993
# diagonal-C6 C 24.28 24.06 23.92 23.94 24.16 24.37 24.02 20.54 23.96 24.14 24.25 23.94 24.23 24.27 24.02 20.08 24.59 24.28 24.09 23.92 24.00 24.25 24.26 24.00 23.91 24.09 24.28 24.57 20.65 24.02 24.26 24.21 24.03 24.26 24.15 23.97 20.07 24.01 24.38 24.16 23.95 23.92 24.06 24.27 25.67
# diagonal-C6 N 15.60 15.60 15.60 15.60
# diagonal-C6 Ti 321.59
# diagonal-C6 O 10.41 12.77 10.41
# diagonal-C6 H 3.09 3.09
EvdW_6 =   -0.044040
EvdW_8 =   -0.033561

-------- Electronic minimization -----------
	Linear fluid (dielectric constant: 78.4, screening length: 8.12261 Bohr) occupying 0.712591 of unit cell:	Completed after 2 iterations at t[s]:   1949.31
	FillingsUpdate:  mu: -0.163286376  nElectrons: 232.000000  magneticMoment: [ Abs: 0.00002  Tot: -0.00000 ]
ElecMinimize: Iter:   0  F: -404.809860053768205  |grad|_K:  9.369e-08  alpha:  1.000e+00
	Linear fluid (dielectric constant: 78.4, screening length: 8.12261 Bohr) occupying 0.712592 of unit cell:	Completed after 3 iterations at t[s]:   2060.61
	Linear fluid (dielectric constant: 78.4, screening length: 8.12261 Bohr) occupying 0.712592 of unit cell:	Completed after 1 iterations at t[s]:   2099.71
	FillingsUpdate:  mu: -0.163327797  nElectrons: 232.000000  magneticMoment: [ Abs: 0.00001  Tot: -0.00000 ]
	SubspaceRotationAdjust: set factor to 0.193
ElecMinimize: Iter:   1  F: -404.809861239089912  |grad|_K:  5.024e-08  alpha:  6.139e-01  linmin:  5.786e-04  t[s]:   2153.48
	Linear fluid (dielectric constant: 78.4, screening length: 8.12261 Bohr) occupying 0.712591 of unit cell:	Completed after 2 iterations at t[s]:   2201.88
	Linear fluid (dielectric constant: 78.4, screening length: 8.12261 Bohr) occupying 0.712591 of unit cell:	Completed after 0 iterations at t[s]:   2240.25
	FillingsUpdate:  mu: -0.163320381  nElectrons: 232.000000  magneticMoment: [ Abs: 0.00001  Tot: -0.00000 ]
	SubspaceRotationAdjust: set factor to 0.208
ElecMinimize: Iter:   2  F: -404.809861482242809  |grad|_K:  3.044e-08  alpha:  4.503e-01  linmin:  1.577e-03  t[s]:   2294.52
	Linear fluid (dielectric constant: 78.4, screening length: 8.12261 Bohr) occupying 0.712591 of unit cell:	Completed after 0 iterations at t[s]:   2341.56
	Linear fluid (dielectric constant: 78.4, screening length: 8.12261 Bohr) occupying 0.712591 of unit cell:	Completed after 1 iterations at t[s]:   2380.92
	FillingsUpdate:  mu: -0.163320864  nElectrons: 232.000000  magneticMoment: [ Abs: 0.00001  Tot: -0.00000 ]
	SubspaceRotationAdjust: set factor to 0.23
ElecMinimize: Iter:   3  F: -404.809861596409576  |grad|_K:  2.329e-08  alpha:  9.820e-01  linmin:  2.565e-03  t[s]:   2435.44
	Linear fluid (dielectric constant: 78.4, screening length: 8.12261 Bohr) occupying 0.712591 of unit cell:	Completed after 0 iterations at t[s]:   2482.75
	Linear fluid (dielectric constant: 78.4, screening length: 8.12261 Bohr) occupying 0.712591 of unit cell:	Completed after 0 iterations at t[s]:   2520.83
	FillingsUpdate:  mu: -0.163319337  nElectrons: 232.000000  magneticMoment: [ Abs: 0.00001  Tot: -0.00000 ]
	SubspaceRotationAdjust: set factor to 0.289
ElecMinimize: Iter:   4  F: -404.809861659770831  |grad|_K:  1.307e-08  alpha:  7.331e-01  linmin: -4.513e-04  t[s]:   2575.25
	Linear fluid (dielectric constant: 78.4, screening length: 8.12261 Bohr) occupying 0.712591 of unit cell:	Completed after 0 iterations at t[s]:   2621.53
	Linear fluid (dielectric constant: 78.4, screening length: 8.12261 Bohr) occupying 0.712590 of unit cell:	Completed after 0 iterations at t[s]:   2659.84
	FillingsUpdate:  mu: -0.163318996  nElectrons: 232.000000  magneticMoment: [ Abs: 0.00000  Tot: -0.00000 ]
	SubspaceRotationAdjust: set factor to 0.34
ElecMinimize: Iter:   5  F: -404.809861697603253  |grad|_K:  1.107e-08  alpha:  9.846e-01  linmin: -5.929e-06  t[s]:   2714.41
ElecMinimize: Converged (|Delta F|<1.000000e-07 for 2 iters).
Setting wave functions to eigenvectors of Hamiltonian
Converging empty states (this may take a while): |deigs|: 1.058e-09

Computing DFT-D3 correction:
# coordination-number C 3.301 3.322 3.335 3.333 3.313 3.290 3.326 3.579 3.331 3.314 3.304 3.333 3.306 3.301 3.326 3.617 3.265 3.300 3.319 3.335 3.328 3.303 3.302 3.327 3.336 3.319 3.300 3.268 3.570 3.326 3.302 3.307 3.325 3.303 3.314 3.330 3.618 3.327 3.289 3.313 3.333 3.335 3.322 3.301 3.000
# coordination-number N 3.178 3.178 3.176 3.183
# coordination-number Ti 7.480
# coordination-number O 2.000 1.051 1.983
# coordination-number H 1.002 0.993
# diagonal-C6 C 24.28 24.06 23.92 23.94 24.16 24.37 24.02 20.54 23.96 24.14 24.25 23.94 24.23 24.27 24.02 20.08 24.59 24.28 24.09 23.92 24.00 24.25 24.26 24.00 23.91 24.09 24.28 24.57 20.65 24.02 24.26 24.21 24.03 24.26 24.15 23.97 20.07 24.01 24.38 24.16 23.95 23.92 24.06 24.27 25.67
# diagonal-C6 N 15.60 15.60 15.60 15.60
# diagonal-C6 Ti 321.59
# diagonal-C6 O 10.41 12.77 10.41
# diagonal-C6 H 3.09 3.09
EvdW_6 =   -0.044040
EvdW_8 =   -0.033561

# Ionic positions in cartesian coordinates:
ion C  -0.007688353393559   0.084959649218681  43.322644558500144 1
ion C  21.041488558678690   4.043043397615283  43.293648359380441 1
ion C  18.693374925669982   8.049193733563989  43.188715436490710 1
ion C  -7.053143334769102  12.050105241987232  43.177181295548792 1
ion C  -9.378237703546608  16.064956696858733  43.270619012471073 1
ion C   4.677799365648250   0.197858166040383   0.089506934735829 1
ion C   2.286894668288137   4.207873766199154   0.173732675603884 1
ion C  -0.127517492481246   8.029090030639047   0.111643238367684 1
ion C  -2.446129686051767  12.041851084255272  43.246561512766498 1
ion C  -4.735423495021568  16.071888332606065  43.259902293136847 1
ion C   9.370052767630366   0.086117382336169  43.284143173557915 1
ion C   7.084829799631232   4.194571382824329   0.122987636949796 1
ion C  -0.043660549430918  15.973816202266162   0.058604637266413 1
ion C   2.340841663765454  19.928169042145598  43.292646857694670 1
ion C  11.756497160996796   4.028846113181049  43.241274441894092 1
ion C   9.475404845866844   8.016120839822641   0.049192260179498 1
ion C   4.664428259159459  15.828334528542815   0.166124423483560 1
ion C   6.991418678770399  19.933123790223771  43.312788894136681 1
ion C  16.399008508213299   4.014977326286799  43.222410005106504 1
ion C  14.092974182009744   8.041058780050070  43.170428164122143 1
ion C  11.773687244070786  12.043354075591404  43.248857712740261 1
ion C   9.368652134764584  15.977461731219881   0.073439846240515 1
ion C  -0.020772844267758   2.772943163994853   0.086101165545414 1
ion C  -2.428083481917626   6.701781859574441  43.267771146000662 1
ion C  -4.751272968206260  10.702319374384059  43.181499198896709 1
ion C  -7.054820376684444  14.728953652221280  43.230053599314118 1
ion C  -9.379639243682035  18.753884121790939  43.319165338174116 1
ion C   4.680039965769402   2.916098254198115   0.157449887431829 1
ion C  -0.137906538717887  10.729400003866996   0.103493344407438 1
ion C  -2.413017115018847  14.715521285825064  43.269753933183729 1
ion C  -4.728801836956761  18.758199600989535  43.301974449494445 1
ion C   9.388818026608805   2.767249741117176   0.027023643380888 1
ion C   2.260146360340743  14.539702841590479   0.167086293502513 1
ion C  -0.023378421036762  18.656096156484782  43.288177098082947 1
ion C  14.079255435904217   2.672655694961475  43.242737978283351 1
ion C  11.786158924183290   6.703096087870515  43.219708641872920 1
ion C   9.470964512756872  10.718839967407508   0.073212490824963 1
ion C   7.060909035493092  14.545219351644249   0.157593255751482 1
ion C   4.666839376566411  18.546605228796420   0.085155196250304 1
ion C  18.723237011730312   2.679877035203345  43.268699256907929 1
ion C  16.396233143818268   6.693309779466723  43.174839018294314 1
ion C  14.086194950619603  10.712558649105993  43.178811670058963 1
ion C  11.739810313947427  14.720606634352652  43.282446954851892 1
ion C   9.355129764159249  18.664027790623273  43.318415485921903 1
ion C   4.940562026233741   8.321798807608440   5.404814767017595 1
ion N   2.128044488404659  11.956926352662348   0.265194797491507 1
ion N   7.190355749915784  11.947234911602333   0.223358162570040 1
ion N   2.160341898099770   6.811225971562648   0.265776431258449 1
ion N   7.207228333486698   6.776426799391183   0.194524421227598 1
ion Ti   4.719188255512069   9.358334022576910   1.684803421866243 1
ion O   4.086261190222191  10.658550591194828   5.147909166014067 1
ion O   5.296379108022206   7.185274964193463   7.423470871315523 1
ion O   7.227396182462710   2.447587966165537   6.731433972841523 1
ion H   6.445117472890810   4.168015575432850   6.890144742398573 1
ion H   5.797340150870842   1.317324468665275   6.398682829192838 1

# Forces in Cartesian coordinates:
force C   0.000007345532470  -0.000010008380375  -0.000046618160695 1
force C  -0.000028786977980  -0.000029938955614   0.000023302526236 1
force C  -0.000003036635115   0.000096786865269  -0.000036748461783 1
force C   0.000030192931705   0.000127992080797   0.000053687137863 1
force C   0.000031538341184  -0.000011496074243   0.000011922606756 1
force C  -0.000022142215746  -0.000088721867947  -0.000074036962553 1
force C   0.000069580892295   0.000072169784397   0.000010682325185 1
force C   0.000153346202418  -0.000026623019928  -0.000052291016067 1
force C   0.000066376726912  -0.000010068450274   0.000026827203646 1
force C  -0.000029605293634  -0.000016561921483   0.000023760314750 1
force C  -0.000045066570872  -0.000106687881906  -0.000021941708838 1
force C  -0.000028271171204  -0.000062800311306  -0.000016606609172 1
force C  -0.000036859198933  -0.000068810292571   0.000064008420503 1
force C  -0.000051272535439   0.000017256158758   0.000102482529971 1
force C   0.000047733434385  -0.000115529388509  -0.000067906833037 1
force C   0.000034885932329  -0.000089187023362  -0.000099481990470 1
force C  -0.000014831408048   0.000046237568077   0.000009223451522 1
force C  -0.000043279918342   0.000056450675010   0.000070108778769 1
force C  -0.000004369546163   0.000027501416297   0.000065382655137 1
force C   0.000052328688637   0.000067571472019  -0.000046783516491 1
force C   0.000097344708808   0.000049174246579   0.000046124567664 1
force C   0.000060534293476   0.000099770804312   0.000019548775586 1
force C  -0.000010964191839   0.000059892674645  -0.000014868587561 1
force C  -0.000002355796036  -0.000039226121049  -0.000050140282673 1
force C  -0.000024350398543   0.000020375898887   0.000030358269585 1
force C  -0.000033040407523   0.000021116892763   0.000064899545660 1
force C  -0.000056744460544  -0.000045227612550  -0.000024412969390 1
force C  -0.000038532471522  -0.000042943371947  -0.000065153355210 1
force C   0.000107155593797  -0.000123202235128  -0.000099908886135 1
force C   0.000023007724666  -0.000047482804575   0.000052545844672 1
force C  -0.000027835881646  -0.000072104648658  -0.000039865059712 1
force C   0.000035970466454  -0.000073414747676  -0.000084644521110 1
force C   0.000032480569108  -0.000074847919798   0.000007050847549 1
force C   0.000021954009209  -0.000004588779369   0.000089084999492 1
force C   0.000066193050781   0.000008235995703   0.000034110917784 1
force C   0.000131797100724  -0.000094723232167  -0.000115796277568 1
force C   0.000082780987556  -0.000050442587313  -0.000089411546642 1
force C   0.000032468740307   0.000067766746552  -0.000033463695237 1
force C  -0.000014483153044   0.000099560329440   0.000059743256282 1
force C  -0.000076881863046   0.000004035005075   0.000095162800198 1
force C  -0.000028105347815  -0.000006034193907  -0.000015649134032 1
force C   0.000051419014516   0.000018525144691   0.000038597340384 1
force C  -0.000011758095599   0.000033611788115   0.000024401822771 1
force C  -0.000071217424757   0.000086693441588   0.000008723095141 1
force C   0.000276857883608   0.000160304032852  -0.000295291019189 1
force N   0.000091270934693  -0.000088946748494  -0.000021727370212 1
force N   0.000049440916560   0.000029528317199  -0.000094342996454 1
force N   0.000209564387010   0.000129350991400   0.000076520299286 1
force N  -0.000030668078126   0.000005454703468  -0.000058945672675 1
force Ti  -0.000086001468508  -0.000033119096717   0.000127447554722 1
force O   0.000015441229177  -0.000127835360408   0.000228835329807 1
force O   0.000019658958270  -0.000048662259987   0.000164773153528 1
force O   0.000003399525167   0.000186024001400  -0.000312233948414 1
force H  -0.000087358072124  -0.000160741911508  -0.000314626501589 1
force H   0.000059096044637  -0.000086833669383  -0.000089752400230 1

# Energy components:
   A_diel =       -0.0264824103764015
   Eewald =     1710.4668268323853226
       EH =     2032.9516233146134709
     Eloc =    -4298.6325334263065088
      Enl =       54.7746448806777479
     EvdW =       -0.0776005439939935
      Exc =     -113.1391720672032335
 Exc_core =        3.3745487095648032
       KE =      205.4983076402606912
  MuShift =       -0.0000000000000133
-------------------------------------
     Etot =     -404.8098370703784212
       TS =        0.0000246272248573
-------------------------------------
        F =     -404.8098616976032531


Dumping 'jdft.fillings' ... done
Dumping 'jdft.wfns' ... done
Dumping 'jdft.fluidState' ... done
Dumping 'jdft.ionpos' ... done
Dumping 'jdft.lattice' ... done
Dumping 'jdft.eigenvals' ... done
Dumping 'jdft.eigStats' ... 
	eMin: -2.291527 at state 9 ( [ +0.000000 +0.000000 +0.000000 ] spin -1 )
	HOMO: -0.168981 at state 13 ( [ +0.333333 +0.333333 +0.000000 ] spin -1 )
	mu  : -0.163319
	LUMO: -0.157835 at state 17 ( [ -0.333333 -0.333333 +0.000000 ] spin -1 )
	eMax: +0.016317 at state 8 ( [ -0.333333 -0.333333 +0.000000 ] spin 1 )
	HOMO-LUMO gap: +0.011146
	Optical gap  : +0.011146 at state 17 ( [ -0.333333 -0.333333 +0.000000 ] spin -1 )
Dumping 'jdft.Ecomponents' ... done
IonicMinimize: Iter:   1  F: -404.809861697603253  |grad|_K:  8.257e-05  alpha:  1.000e+00  linmin: -2.700e-01  t[s]:   2849.37
IonicMinimize: Converged (|grad|_K<1.000000e-04).

#--- Lowdin population analysis ---
# oxidation-state C +0.050 +0.064 +0.049 +0.057 +0.046 +0.050 +0.175 +0.142 +0.039 +0.046 +0.050 +0.185 +0.040 +0.055 +0.065 +0.138 +0.004 +0.054 +0.047 +0.049 +0.040 +0.041 +0.039 +0.039 +0.049 +0.046 +0.052 +0.004 +0.143 +0.065 +0.051 +0.041 +0.180 +0.051 +0.048 +0.039 +0.137 +0.177 +0.055 +0.047 +0.057 +0.050 +0.064 +0.051 +0.232
# magnetic-moments C -0.000 -0.000 -0.000 -0.000 -0.000 -0.000 -0.000 -0.000 -0.000 -0.000 -0.000 -0.000 +0.000 +0.000 +0.000 +0.000 +0.000 +0.000 +0.000 +0.000 -0.000 -0.000 +0.000 +0.000 +0.000 +0.000 +0.000 +0.000 -0.000 +0.000 +0.000 +0.000 -0.000 +0.000 -0.000 -0.000 +0.000 -0.000 -0.000 +0.000 -0.000 +0.000 +0.000 +0.000 +0.000
# oxidation-state N -0.301 -0.309 -0.301 -0.296
# magnetic-moments N +0.000 +0.000 +0.000 +0.000
# oxidation-state Ti +1.455
# magnetic-moments Ti -0.000
# oxidation-state O -0.469 -0.456 -0.816
# magnetic-moments O +0.000 +0.000 +0.000
# oxidation-state H +0.393 +0.439
# magnetic-moments H -0.000 -0.000


Dumping 'jdft.n_up' ... done
Dumping 'jdft.n_dn' ... done
Dumping 'jdft.tau_up' ... done
Dumping 'jdft.tau_dn' ... done
Dumping 'jdft.eigenvals' ... done
Dumping 'jdft.eigStats' ... 
	eMin: -2.291527 at state 9 ( [ +0.000000 +0.000000 +0.000000 ] spin -1 )
	HOMO: -0.168981 at state 13 ( [ +0.333333 +0.333333 +0.000000 ] spin -1 )
	mu  : -0.163319
	LUMO: -0.157835 at state 17 ( [ -0.333333 -0.333333 +0.000000 ] spin -1 )
	eMax: +0.016317 at state 8 ( [ -0.333333 -0.333333 +0.000000 ] spin 1 )
	HOMO-LUMO gap: +0.011146
	Optical gap  : +0.011146 at state 17 ( [ -0.333333 -0.333333 +0.000000 ] spin -1 )
Dumping 'jdft.kPts' ... done
Dumping 'jdft.dosUp' ... done.
Dumping 'jdft.dosDn' ... done.
End date and time: Sun Jul 17 12:47:50 2022  (Duration: 0-0:48:55.90)
Done!

PROFILER:             augmentDensityGrid     0.658755 +/-     0.782707 s,  175 calls,    115.282206 s total
PROFILER:         augmentDensityGridGrad     0.490824 +/-     0.608338 s,  110 calls,     53.990680 s total
PROFILER:        augmentDensitySpherical     0.000455 +/-     0.000643 s,  175 calls,      0.079624 s total
PROFILER:    augmentDensitySphericalGrad     0.000839 +/-     0.003691 s,  130 calls,      0.109051 s total
PROFILER:                 augmentOverlap     1.549596 +/-     2.245776 s,  380 calls,    588.846604 s total
PROFILER:                     diagouterI    14.935769 +/-     0.215252 s,   38 calls,    567.559230 s total
PROFILER:              EdensityAndVscloc     8.168839 +/-     1.341051 s,   35 calls,    285.909359 s total
PROFILER:                     EnlAndGrad     0.001544 +/-     0.002274 s,  205 calls,      0.316452 s total
PROFILER:            ExCorrCommunication     0.107166 +/-     0.139844 s,  234 calls,     25.076799 s total
PROFILER:               ExCorrFunctional     0.020399 +/-     0.005005 s,   42 calls,      0.856779 s total
PROFILER:                    ExCorrTotal     0.886964 +/-     0.418043 s,   42 calls,     37.252472 s total
PROFILER:                   Idag_DiagV_I    29.992365 +/-     0.374338 s,   24 calls,    719.816758 s total
PROFILER:                    initWeights     1.837551 +/-     0.000000 s,    1 calls,      1.837551 s total
PROFILER:                    inv(matrix)     0.002999 +/-     0.005088 s,   34 calls,      0.101963 s total
PROFILER:            matrix::diagonalize     0.008725 +/-     0.006256 s,   60 calls,      0.523494 s total
PROFILER:                    matrix::set     0.000002 +/-     0.000003 s, 3783 calls,      0.007256 s total
PROFILER:            orthoMatrix(matrix)     0.002016 +/-     0.001239 s,   37 calls,      0.074610 s total
PROFILER:     RadialFunctionR::transform     0.015267 +/-     0.133805 s,  146 calls,      2.229038 s total
PROFILER:                    reduceKmesh     0.000000 +/-     0.000000 s,    1 calls,      0.000000 s total
PROFILER:   VanDerWaalsD3::energyAndGrad     0.035467 +/-     0.005448 s,    5 calls,      0.177333 s total
PROFILER:               WavefunctionDrag    25.226287 +/-     6.817561 s,    2 calls,     50.452574 s total
PROFILER:                            Y*M     0.702746 +/-     0.848934 s,  652 calls,    458.190551 s total
PROFILER:                          Y1^Y2     0.747424 +/-     0.895565 s,  500 calls,    373.711823 s total

MEMUSAGE:                   ColumnBundle     1.365987 GB
MEMUSAGE:        complexScalarFieldTilde     0.074158 GB
MEMUSAGE:                    IndexArrays     0.023178 GB
MEMUSAGE:                         matrix     0.020850 GB
MEMUSAGE:                           misc     0.051230 GB
MEMUSAGE:                    ScalarField     0.358429 GB
MEMUSAGE:               ScalarFieldTilde     0.262436 GB
MEMUSAGE:                          Total     1.646313 GB
