
*************** JDFTx 1.7.0 (git hash 5f12716a) ***************

Start date and time: Tue Jul 19 05:14:26 2022
Executable /home/nisi6161/jdftx_alpine/build/jdftx with command-line: -i in
Running on hosts (process indices):  c3cpu-a2-u19-1.rc.int.colorado.edu (0-17)
Divided in process groups (process indices):  0 (0)  1 (1)  2 (2)  3 (3)  4 (4)  5 (5)  6 (6)  7 (7)  8 (8)  9 (9)  10 (10)  11 (11)  12 (12)  13 (13)  14 (14)  15 (15)  16 (16)  17 (17)
Resource initialization completed at t[s]:      0.00
Run totals: 18 processes, 64 threads, 0 GPUs


Input parsed successfully to the following command list (including defaults):

basis kpoint-dependent
converge-empty-states yes
coords-type Cartesian
core-overlap-check none
coulomb-interaction Periodic
davidson-band-ratio 1.1
density-of-states Etol 1.000000e-06 Esigma 1.000000e-03 \
		Complete \
	Total \
	OrthoOrbital C 1   s \
	OrthoOrbital C 1   p \
	OrthoOrbital C 1   px \
	OrthoOrbital C 1   py \
	OrthoOrbital C 1   pz \
	OrthoOrbital C 2   s \
	OrthoOrbital C 2   p \
	OrthoOrbital C 2   px \
	OrthoOrbital C 2   py \
	OrthoOrbital C 2   pz \
	OrthoOrbital C 3   s \
	OrthoOrbital C 3   p \
	OrthoOrbital C 3   px \
	OrthoOrbital C 3   py \
	OrthoOrbital C 3   pz \
	OrthoOrbital C 4   s \
	OrthoOrbital C 4   p \
	OrthoOrbital C 4   px \
	OrthoOrbital C 4   py \
	OrthoOrbital C 4   pz \
	OrthoOrbital C 5   s \
	OrthoOrbital C 5   p \
	OrthoOrbital C 5   px \
	OrthoOrbital C 5   py \
	OrthoOrbital C 5   pz \
	OrthoOrbital C 6   s \
	OrthoOrbital C 6   p \
	OrthoOrbital C 6   px \
	OrthoOrbital C 6   py \
	OrthoOrbital C 6   pz \
	OrthoOrbital C 7   s \
	OrthoOrbital C 7   p \
	OrthoOrbital C 7   px \
	OrthoOrbital C 7   py \
	OrthoOrbital C 7   pz \
	OrthoOrbital C 8   s \
	OrthoOrbital C 8   p \
	OrthoOrbital C 8   px \
	OrthoOrbital C 8   py \
	OrthoOrbital C 8   pz \
	OrthoOrbital C 9   s \
	OrthoOrbital C 9   p \
	OrthoOrbital C 9   px \
	OrthoOrbital C 9   py \
	OrthoOrbital C 9   pz \
	OrthoOrbital C 10   s \
	OrthoOrbital C 10   p \
	OrthoOrbital C 10   px \
	OrthoOrbital C 10   py \
	OrthoOrbital C 10   pz \
	OrthoOrbital C 11   s \
	OrthoOrbital C 11   p \
	OrthoOrbital C 11   px \
	OrthoOrbital C 11   py \
	OrthoOrbital C 11   pz \
	OrthoOrbital C 12   s \
	OrthoOrbital C 12   p \
	OrthoOrbital C 12   px \
	OrthoOrbital C 12   py \
	OrthoOrbital C 12   pz \
	OrthoOrbital C 13   s \
	OrthoOrbital C 13   p \
	OrthoOrbital C 13   px \
	OrthoOrbital C 13   py \
	OrthoOrbital C 13   pz \
	OrthoOrbital C 14   s \
	OrthoOrbital C 14   p \
	OrthoOrbital C 14   px \
	OrthoOrbital C 14   py \
	OrthoOrbital C 14   pz \
	OrthoOrbital C 15   s \
	OrthoOrbital C 15   p \
	OrthoOrbital C 15   px \
	OrthoOrbital C 15   py \
	OrthoOrbital C 15   pz \
	OrthoOrbital C 16   s \
	OrthoOrbital C 16   p \
	OrthoOrbital C 16   px \
	OrthoOrbital C 16   py \
	OrthoOrbital C 16   pz \
	OrthoOrbital C 17   s \
	OrthoOrbital C 17   p \
	OrthoOrbital C 17   px \
	OrthoOrbital C 17   py \
	OrthoOrbital C 17   pz \
	OrthoOrbital C 18   s \
	OrthoOrbital C 18   p \
	OrthoOrbital C 18   px \
	OrthoOrbital C 18   py \
	OrthoOrbital C 18   pz \
	OrthoOrbital C 19   s \
	OrthoOrbital C 19   p \
	OrthoOrbital C 19   px \
	OrthoOrbital C 19   py \
	OrthoOrbital C 19   pz \
	OrthoOrbital C 20   s \
	OrthoOrbital C 20   p \
	OrthoOrbital C 20   px \
	OrthoOrbital C 20   py \
	OrthoOrbital C 20   pz \
	OrthoOrbital C 21   s \
	OrthoOrbital C 21   p \
	OrthoOrbital C 21   px \
	OrthoOrbital C 21   py \
	OrthoOrbital C 21   pz \
	OrthoOrbital C 22   s \
	OrthoOrbital C 22   p \
	OrthoOrbital C 22   px \
	OrthoOrbital C 22   py \
	OrthoOrbital C 22   pz \
	OrthoOrbital C 23   s \
	OrthoOrbital C 23   p \
	OrthoOrbital C 23   px \
	OrthoOrbital C 23   py \
	OrthoOrbital C 23   pz \
	OrthoOrbital C 24   s \
	OrthoOrbital C 24   p \
	OrthoOrbital C 24   px \
	OrthoOrbital C 24   py \
	OrthoOrbital C 24   pz \
	OrthoOrbital C 25   s \
	OrthoOrbital C 25   p \
	OrthoOrbital C 25   px \
	OrthoOrbital C 25   py \
	OrthoOrbital C 25   pz \
	OrthoOrbital C 26   s \
	OrthoOrbital C 26   p \
	OrthoOrbital C 26   px \
	OrthoOrbital C 26   py \
	OrthoOrbital C 26   pz \
	OrthoOrbital C 27   s \
	OrthoOrbital C 27   p \
	OrthoOrbital C 27   px \
	OrthoOrbital C 27   py \
	OrthoOrbital C 27   pz \
	OrthoOrbital C 28   s \
	OrthoOrbital C 28   p \
	OrthoOrbital C 28   px \
	OrthoOrbital C 28   py \
	OrthoOrbital C 28   pz \
	OrthoOrbital C 29   s \
	OrthoOrbital C 29   p \
	OrthoOrbital C 29   px \
	OrthoOrbital C 29   py \
	OrthoOrbital C 29   pz \
	OrthoOrbital C 30   s \
	OrthoOrbital C 30   p \
	OrthoOrbital C 30   px \
	OrthoOrbital C 30   py \
	OrthoOrbital C 30   pz \
	OrthoOrbital C 31   s \
	OrthoOrbital C 31   p \
	OrthoOrbital C 31   px \
	OrthoOrbital C 31   py \
	OrthoOrbital C 31   pz \
	OrthoOrbital C 32   s \
	OrthoOrbital C 32   p \
	OrthoOrbital C 32   px \
	OrthoOrbital C 32   py \
	OrthoOrbital C 32   pz \
	OrthoOrbital C 33   s \
	OrthoOrbital C 33   p \
	OrthoOrbital C 33   px \
	OrthoOrbital C 33   py \
	OrthoOrbital C 33   pz \
	OrthoOrbital C 34   s \
	OrthoOrbital C 34   p \
	OrthoOrbital C 34   px \
	OrthoOrbital C 34   py \
	OrthoOrbital C 34   pz \
	OrthoOrbital C 35   s \
	OrthoOrbital C 35   p \
	OrthoOrbital C 35   px \
	OrthoOrbital C 35   py \
	OrthoOrbital C 35   pz \
	OrthoOrbital C 36   s \
	OrthoOrbital C 36   p \
	OrthoOrbital C 36   px \
	OrthoOrbital C 36   py \
	OrthoOrbital C 36   pz \
	OrthoOrbital C 37   s \
	OrthoOrbital C 37   p \
	OrthoOrbital C 37   px \
	OrthoOrbital C 37   py \
	OrthoOrbital C 37   pz \
	OrthoOrbital C 38   s \
	OrthoOrbital C 38   p \
	OrthoOrbital C 38   px \
	OrthoOrbital C 38   py \
	OrthoOrbital C 38   pz \
	OrthoOrbital C 39   s \
	OrthoOrbital C 39   p \
	OrthoOrbital C 39   px \
	OrthoOrbital C 39   py \
	OrthoOrbital C 39   pz \
	OrthoOrbital C 40   s \
	OrthoOrbital C 40   p \
	OrthoOrbital C 40   px \
	OrthoOrbital C 40   py \
	OrthoOrbital C 40   pz \
	OrthoOrbital C 41   s \
	OrthoOrbital C 41   p \
	OrthoOrbital C 41   px \
	OrthoOrbital C 41   py \
	OrthoOrbital C 41   pz \
	OrthoOrbital C 42   s \
	OrthoOrbital C 42   p \
	OrthoOrbital C 42   px \
	OrthoOrbital C 42   py \
	OrthoOrbital C 42   pz \
	OrthoOrbital C 43   s \
	OrthoOrbital C 43   p \
	OrthoOrbital C 43   px \
	OrthoOrbital C 43   py \
	OrthoOrbital C 43   pz \
	OrthoOrbital C 44   s \
	OrthoOrbital C 44   p \
	OrthoOrbital C 44   px \
	OrthoOrbital C 44   py \
	OrthoOrbital C 44   pz \
	OrthoOrbital C 45   s \
	OrthoOrbital C 45   p \
	OrthoOrbital C 45   px \
	OrthoOrbital C 45   py \
	OrthoOrbital C 45   pz \
	OrthoOrbital N 1   s \
	OrthoOrbital N 1   p \
	OrthoOrbital N 1   px \
	OrthoOrbital N 1   py \
	OrthoOrbital N 1   pz \
	OrthoOrbital N 2   s \
	OrthoOrbital N 2   p \
	OrthoOrbital N 2   px \
	OrthoOrbital N 2   py \
	OrthoOrbital N 2   pz \
	OrthoOrbital N 3   s \
	OrthoOrbital N 3   p \
	OrthoOrbital N 3   px \
	OrthoOrbital N 3   py \
	OrthoOrbital N 3   pz \
	OrthoOrbital N 4   s \
	OrthoOrbital N 4   p \
	OrthoOrbital N 4   px \
	OrthoOrbital N 4   py \
	OrthoOrbital N 4   pz \
	OrthoOrbital Ti 1   s \
	OrthoOrbital Ti 1   p \
	OrthoOrbital Ti 1   px \
	OrthoOrbital Ti 1   py \
	OrthoOrbital Ti 1   pz \
	OrthoOrbital Ti 1   d \
	OrthoOrbital Ti 1   dxy \
	OrthoOrbital Ti 1   dyz \
	OrthoOrbital Ti 1   dz2 \
	OrthoOrbital Ti 1   dxz \
	OrthoOrbital Ti 1   dx2-y2 \
	OrthoOrbital O 1   s \
	OrthoOrbital O 1   p \
	OrthoOrbital O 1   px \
	OrthoOrbital O 1   py \
	OrthoOrbital O 1   pz \
	OrthoOrbital O 2   s \
	OrthoOrbital O 2   p \
	OrthoOrbital O 2   px \
	OrthoOrbital O 2   py \
	OrthoOrbital O 2   pz \
	OrthoOrbital H 1   s \
	OrthoOrbital O 1   s \
	OrthoOrbital O 1   p \
	OrthoOrbital O 1   px \
	OrthoOrbital O 1   py \
	OrthoOrbital O 1   pz \
	OrthoOrbital H 1   s \
	OrthoOrbital H 2   s
dump End ElecDensity KEdensity BandEigs EigStats RhoAtom DOS Kpoints
dump Ionic State IonicPositions Lattice EigStats Ecomponents
dump 
dump 
dump 
dump 
dump 
dump 
dump 
dump 
dump-name jdft.$VAR
elec-cutoff 20
elec-eigen-algo Davidson
elec-ex-corr gga-PBE
elec-initial-magnetization 0.000000 no
elec-n-bands 140
elec-smearing Fermi 0.001
electronic-minimize  \
	dirUpdateScheme      FletcherReeves \
	linminMethod         DirUpdateRecommended \
	nIterations          100 \
	history              15 \
	knormThreshold       0 \
	energyDiffThreshold  1e-07 \
	nEnergyDiff          2 \
	alphaTstart          1 \
	alphaTmin            1e-10 \
	updateTestStepSize   yes \
	alphaTreduceFactor   0.1 \
	alphaTincreaseFactor 3 \
	nAlphaAdjustMax      3 \
	wolfeEnergy          0.0001 \
	wolfeGradient        0.9 \
	fdTest               no
exchange-regularization WignerSeitzTruncated
fluid LinearPCM 298.000000 1.013250
fluid-anion F- 0.5 MeanFieldLJ \
	epsBulk 1 \
	pMol 0 \
	epsInf 1 \
	Pvap 0 \
	sigmaBulk 0 \
	Rvdw 2.24877 \
	Res 0 \
	tauNuc 343133
fluid-cation Na+ 0.5 MeanFieldLJ \
	epsBulk 1 \
	pMol 0 \
	epsInf 1 \
	Pvap 0 \
	sigmaBulk 0 \
	Rvdw 2.19208 \
	Res 0 \
	tauNuc 343133
fluid-ex-corr lda-TF lda-PZ
fluid-gummel-loop 10 1.000000e-05
fluid-minimize  \
	dirUpdateScheme      PolakRibiere \
	linminMethod         DirUpdateRecommended \
	nIterations          400 \
	history              15 \
	knormThreshold       1e-11 \
	energyDiffThreshold  0 \
	nEnergyDiff          2 \
	alphaTstart          1 \
	alphaTmin            1e-10 \
	updateTestStepSize   yes \
	alphaTreduceFactor   0.1 \
	alphaTincreaseFactor 3 \
	nAlphaAdjustMax      6 \
	wolfeEnergy          0.0001 \
	wolfeGradient        0.9 \
	fdTest               no
fluid-solvent H2O 55.338 ScalarEOS \
	epsBulk 78.4 \
	pMol 0.92466 \
	epsInf 1.77 \
	Pvap 1.06736e-10 \
	sigmaBulk 4.62e-05 \
	Rvdw 2.61727 \
	Res 1.42 \
	tauNuc 343133 \
	poleEl 15 7 1
forces-output-coords Positions
initial-state jdft.$VAR
ion C   0.056081645455751   0.036034634590127  43.349204170808925 1
ion C  21.102681227170756   3.993816252992388  43.327826736763114 1
ion C  18.756786951928856   7.998323251442999  43.212488085183566 1
ion C  -6.989466079534566  11.998739544795043  43.211477313865444 1
ion C  -9.318151988899675  16.007880416191178  43.305274191159462 1
ion C   4.739389423614662   0.138186898731091   0.108830398315899 1
ion C   2.349373165333211   4.160812804937448   0.227678685149651 1
ion C  -0.067699232192433   7.981827149788071   0.182640948558435 1
ion C  -2.374136866182559  11.986261997511750  43.308190981537550 1
ion C  -4.667486587867756  16.013615066096079  43.304388028893065 1
ion C   9.433524265943838   0.027735300469263  43.298766793366738 1
ion C   7.147640252638013   4.136602793107679   0.105736083971618 1
ion C   0.027773200457130  15.914006077594470   0.126474901266286 1
ion C   2.403533437387392  19.878847930917857  43.329935720685917 1
ion C  11.817484273654713   3.979948519225622  43.226853275490491 1
ion C   9.528882450858772   7.968577009265419   0.031815413934003 1
ion C   4.725696060188527  15.779399237552630   0.231647044080289 1
ion C   7.052806757282195  19.885595990116375  43.348452124992086 1
ion C  16.459787195558057   3.966710178145866  43.240271370032772 1
ion C  14.152933742664398   7.989788335544032  43.176690682280721 1
ion C  11.830011663158036  11.990341187763871  43.271985010089573 1
ion C   9.425907510740815  15.929135449195959   0.100287554040524 1
ion C   0.043991185101659   2.719948415380417   0.121869197013089 1
ion C  -2.364952222070405   6.650051168630482  43.300832478918835 1
ion C  -4.684189366217299  10.649460401557413  43.219403766421053 1
ion C  -6.991902267013335  14.672971294500277  43.270981156084076 1
ion C  -9.316844669347153  18.696918446626039  43.348197517007272 1
ion C   4.741016150203709   2.859235209736077   0.174897781643936 1
ion C  -0.066675892319624  10.666078582600971   0.181523311334831 1
ion C  -2.347379554340618  14.656181687066670  43.333789283152747 1
ion C  -4.666079411900226  18.698240536079368  43.324619382421332 1
ion C   9.448220660242288   2.706259253698892   0.012456582059753 1
ion C   2.328907801422213  14.475379991430449   0.253581279657815 1
ion C   0.042920196987975  18.594207439418387  43.329496405846079 1
ion C  14.138458118497860   2.623749444345457  43.255092115385608 1
ion C  11.844489056133792   6.651088193140949  43.202936791184129 1
ion C   9.521144861158193  10.658729626258740   0.090263795642189 1
ion C   7.122137962863645  14.499715327009206   0.203384665088354 1
ion C   4.727406377993663  18.500018947750497   0.133910634862431 1
ion C  18.786669589585443   2.631110790325780  43.298885673241564 1
ion C  16.457374063460442   6.641946373020792  43.187948839103584 1
ion C  14.145619087535389  10.661482490819060  43.198984544733882 1
ion C  11.800708034234365  14.662738326047405  43.312464432974224 1
ion C   9.415876757589409  18.612393190251449  43.347216740564896 1
ion C   4.312547934145906   9.805541991636552   5.590357920142516 1
ion N   2.214585284605370  11.888472302237407   0.379296251500354 1
ion N   7.234886495922183  11.901870404282944   0.298121965363549 1
ion N   2.223114429134645   6.761365146538663   0.383503455941336 1
ion N   7.258691449175995   6.716452567952157   0.167855363965872 1
ion Ti   4.830280143219994   9.294917393076030   1.777361090370418 1
ion O   3.570940359508171  10.433990632543058   7.850723994426652 1
ion O   6.085001065256503   8.177509265996843   5.285092399138377 1
ion O   0.146462504246660  13.712093695936135   7.174296590469236 1
ion H   2.126616165260875  11.788640560998125   7.643397647302906 1
ion H   0.601898892064616  15.345331728262273   7.942174612857282 1
ion H  -1.495886711700400  13.257209148870171   7.926861819714398 1
ion-species /projects/musgravc/apps/jdftx-1.6.0/build/pseudopotentials/GBRV_v1.5/$ID_pbe_v1.uspp
ion-species /projects/musgravc/apps/jdftx-1.6.0/build/pseudopotentials/GBRV_v1.5/$ID_pbe_v1.2.uspp
ion-species /projects/musgravc/apps/jdftx-1.6.0/build/pseudopotentials/GBRV_v1.5/$ID_pbe_v1.4.uspp
ion-species /projects/musgravc/apps/jdftx-1.6.0/build/pseudopotentials/GBRV_v1.5/$ID_pbe_v1.5.uspp
ion-width Ecut
ionic-minimize  \
	dirUpdateScheme      L-BFGS \
	linminMethod         DirUpdateRecommended \
	nIterations          100 \
	history              15 \
	knormThreshold       0.0001 \
	energyDiffThreshold  1e-06 \
	nEnergyDiff          2 \
	alphaTstart          1 \
	alphaTmin            1e-10 \
	updateTestStepSize   yes \
	alphaTreduceFactor   0.1 \
	alphaTincreaseFactor 3 \
	nAlphaAdjustMax      3 \
	wolfeEnergy          0.0001 \
	wolfeGradient        0.9 \
	fdTest               no
kpoint   0.000000000000   0.000000000000   0.000000000000  1.00000000000000
kpoint-folding 3 3 1 
latt-move-scale 0 0 0
latt-scale 1 1 1 
lattice  \
	  23.436261999999999  -11.733459000000000    0.000000000000000  \
	   0.017994000000000   19.941849000000001    0.000000000000000  \
	   0.000000000000000    0.000000000000000   43.256312999999999 
lattice-minimize  \
	dirUpdateScheme      L-BFGS \
	linminMethod         DirUpdateRecommended \
	nIterations          0 \
	history              15 \
	knormThreshold       0 \
	energyDiffThreshold  1e-06 \
	nEnergyDiff          2 \
	alphaTstart          1 \
	alphaTmin            1e-10 \
	updateTestStepSize   yes \
	alphaTreduceFactor   0.1 \
	alphaTincreaseFactor 3 \
	nAlphaAdjustMax      3 \
	wolfeEnergy          0.0001 \
	wolfeGradient        0.9 \
	fdTest               no
lcao-params 30 1e-06 0.001
pcm-variant CANDLE
spintype z-spin
subspace-rotation-factor 1 yes
symmetries none
symmetry-threshold 0.0001
target-mu -0.1272 no

van-der-waals D3


Applied RMS atom displacement 0 bohrs to make symmetries exact.

---------- Initializing the Grid ----------
R = 
[      23.4363     -11.7335            0  ]
[     0.017994      19.9418            0  ]
[            0            0      43.2563  ]
unit cell volume = 20225.5
G =
[   0.267976   0.157673         -0  ]
[ -0.000241801   0.314933          0  ]
[          0         -0   0.145255  ]
Minimum fftbox size, Smin = [  96  96  176  ]
Chosen fftbox size, S = [  96  96  180  ]

---------- Exchange Correlation functional ----------
Initalized PBE GGA exchange.
Initalized PBE GGA correlation.

---------- Setting up pseudopotentials ----------
Width of ionic core gaussian charges (only for fluid interactions / plotting) set to 0.397384

Reading pseudopotential file '/projects/musgravc/apps/jdftx-1.6.0/build/pseudopotentials/GBRV_v1.5/c_pbe_v1.2.uspp':
  Title: C.  Created by USPP 7.3.6 on 3-2-2014
  Reference state energy: -5.406344.  4 valence electrons in orbitals:
    |200>  occupation: 2  eigenvalue: -0.504890
    |210>  occupation: 2  eigenvalue: -0.194356
  lMax: 1  lLocal: 2  QijEcut: 5
  4 projectors sampled on a log grid with 503 points:
    l: 0  eig: -0.504890  rCut: 1.3
    l: 0  eig: 0.000000  rCut: 1.3
    l: 1  eig: -0.194357  rCut: 1.3
    l: 1  eig: 0.000000  rCut: 1.3
  Partial core density with radius 1.1
  Transforming core density to a uniform radial grid of dG=0.02 with 1464 points.
  Transforming local potential to a uniform radial grid of dG=0.02 with 1464 points.
  Transforming nonlocal projectors to a uniform radial grid of dG=0.02 with 432 points.
  Transforming density augmentations to a uniform radial grid of dG=0.02 with 1464 points.
  Transforming atomic orbitals to a uniform radial grid of dG=0.02 with 432 points.
  Core radius for overlap checks: 1.30 bohrs.

Reading pseudopotential file '/projects/musgravc/apps/jdftx-1.6.0/build/pseudopotentials/GBRV_v1.5/n_pbe_v1.2.uspp':
  Title: N.  Created by USPP 7.3.6 on 3-2-2014
  Reference state energy: -9.763716.  5 valence electrons in orbitals:
    |200>  occupation: 2  eigenvalue: -0.681964
    |210>  occupation: 3  eigenvalue: -0.260726
  lMax: 1  lLocal: 2  QijEcut: 6
  4 projectors sampled on a log grid with 491 points:
    l: 0  eig: -0.681964  rCut: 1.15
    l: 0  eig: 0.000000  rCut: 1.15
    l: 1  eig: -0.260729  rCut: 1.2
    l: 1  eig: 0.500000  rCut: 1.2
  Partial core density with radius 0.8
  Transforming core density to a uniform radial grid of dG=0.02 with 1464 points.
  Transforming local potential to a uniform radial grid of dG=0.02 with 1464 points.
  Transforming nonlocal projectors to a uniform radial grid of dG=0.02 with 432 points.
  Transforming density augmentations to a uniform radial grid of dG=0.02 with 1464 points.
  Transforming atomic orbitals to a uniform radial grid of dG=0.02 with 432 points.
  Core radius for overlap checks: 1.20 bohrs.

Reading pseudopotential file '/projects/musgravc/apps/jdftx-1.6.0/build/pseudopotentials/GBRV_v1.5/ti_pbe_v1.4.uspp':
  Title: Ti.  Created by USPP 7.3.6 on 31-3-15
  Reference state energy: -59.020943.  12 valence electrons in orbitals:
    |300>  occupation: 2  eigenvalue: -2.777623
    |310>  occupation: 6  eigenvalue: -1.894596
    |400>  occupation: 2  eigenvalue: -0.438610
    |320>  occupation: 1  eigenvalue: -0.583119
  lMax: 2  lLocal: 3  QijEcut: 6
  6 projectors sampled on a log grid with 597 points:
    l: 0  eig: -2.777624  rCut: 1.8
    l: 0  eig: -0.438611  rCut: 1.8
    l: 1  eig: -1.894596  rCut: 1.8
    l: 1  eig: 0.500000  rCut: 1.8
    l: 2  eig: -0.583118  rCut: 1.8
    l: 2  eig: 0.150000  rCut: 1.8
  Partial core density with radius 0.8
  Transforming core density to a uniform radial grid of dG=0.02 with 1464 points.
  Transforming local potential to a uniform radial grid of dG=0.02 with 1464 points.
  Transforming nonlocal projectors to a uniform radial grid of dG=0.02 with 432 points.
  Transforming density augmentations to a uniform radial grid of dG=0.02 with 1464 points.
  Transforming atomic orbitals to a uniform radial grid of dG=0.02 with 432 points.
  Core radius for overlap checks: 1.80 bohrs.

Reading pseudopotential file '/projects/musgravc/apps/jdftx-1.6.0/build/pseudopotentials/GBRV_v1.5/o_pbe_v1.2.uspp':
  Title: O.  Created by USPP 7.3.6 on 3-2-2014
  Reference state energy: -15.894388.  6 valence electrons in orbitals:
    |200>  occupation: 2  eigenvalue: -0.878823
    |210>  occupation: 4  eigenvalue: -0.332131
  lMax: 2  lLocal: 2  QijEcut: 6
  5 projectors sampled on a log grid with 511 points:
    l: 0  eig: -0.878823  rCut: 1.25
    l: 0  eig: 0.000000  rCut: 1.25
    l: 1  eig: -0.332132  rCut: 1.25
    l: 1  eig: 0.000000  rCut: 1.25
    l: 2  eig: 1.000000  rCut: 1.25
  Partial core density with radius 0.7
  Transforming core density to a uniform radial grid of dG=0.02 with 1464 points.
  Transforming local potential to a uniform radial grid of dG=0.02 with 1464 points.
  Transforming nonlocal projectors to a uniform radial grid of dG=0.02 with 432 points.
  Transforming density augmentations to a uniform radial grid of dG=0.02 with 1464 points.
  Transforming atomic orbitals to a uniform radial grid of dG=0.02 with 432 points.
  Core radius for overlap checks: 1.25 bohrs.

Reading pseudopotential file '/projects/musgravc/apps/jdftx-1.6.0/build/pseudopotentials/GBRV_v1.5/h_pbe_v1.4.uspp':
  Title: H.  Created by USPP 7.3.6 on 2-4-15
  Reference state energy: -0.458849.  1 valence electrons in orbitals:
    |100>  occupation: 1  eigenvalue: -0.238595
  lMax: 0  lLocal: 1  QijEcut: 6
  2 projectors sampled on a log grid with 395 points:
    l: 0  eig: -0.238595  rCut: 1.2
    l: 0  eig: 1.000000  rCut: 1.2
  Transforming local potential to a uniform radial grid of dG=0.02 with 1464 points.
  Transforming nonlocal projectors to a uniform radial grid of dG=0.02 with 432 points.
  Transforming density augmentations to a uniform radial grid of dG=0.02 with 1464 points.
  Transforming atomic orbitals to a uniform radial grid of dG=0.02 with 432 points.
  Core radius for overlap checks: 1.20 bohrs.

Initialized 5 species with 56 total atoms.

Folded 1 k-points by 3x3x1 to 9 k-points.

---------- Setting up k-points, bands, fillings ----------
No reducable k-points. 
Computing the number of bands and number of electrons
Reading initial fillings from file jdft.fillings.
nElectrons: 233.000000   nBands: 140   nStates: 18

----- Setting up reduced wavefunction bases (one per k-point) -----
average nbasis = 86412.556 , ideal nbasis = 86404.907

----- Initializing Supercell corresponding to k-point mesh -----
Lattice vector linear combinations in supercell:
[   3   0   0  ]
[   0   3   0  ]
[   0   0   1  ]
Supercell lattice vectors:
[  70.3088  -35.2004  0  ]
[  0.053982  59.8255  0  ]
[  0  0  43.2563  ]

Initializing DFT-D3 calculator:
	Parameters set for gga-PBE functional
	s6:  1.000  s_r6:  1.217
	s8:  0.722  s_r8:  1.000
	Per-atom parameters loaded for:
	 C:  sqrtQ[a0]:  3.105  Rcov[a0]:  1.417  CN: [ 0.00 0.99 2.00 3.00 3.98 ]
	 N:  sqrtQ[a0]:  2.712  Rcov[a0]:  1.342  CN: [ 0.00 0.99 2.01 2.99 ]
	Ti:  sqrtQ[a0]:  6.288  Rcov[a0]:  2.305  CN: [ 0.00 1.83 3.87 ]
	 O:  sqrtQ[a0]:  2.594  Rcov[a0]:  1.191  CN: [ 0.00 0.99 1.99 ]
	 H:  sqrtQ[a0]:  2.007  Rcov[a0]:  0.605  CN: [ 0.91 0.00 ]

Initializing DFT-D2 calculator for fluid / solvation:
	 C:  C6:   30.35 Eh-a0^6  R0: 2.744 a0
	 N:  C6:   21.33 Eh-a0^6  R0: 2.640 a0
	Ti:  C6:  187.33 Eh-a0^6  R0: 2.952 a0
	 O:  C6:   12.14 Eh-a0^6  R0: 2.536 a0
	 H:  C6:    2.43 Eh-a0^6  R0: 1.892 a0

---------- Setting up ewald sum ----------
Optimum gaussian width for ewald sums = 5.557061 bohr.
Real space sum over 567 unit cells with max indices [  4  4  3  ]
Reciprocal space sum over 7803 terms with max indices [  8  8  13  ]

Computing DFT-D3 correction:
# coordination-number C 3.299 3.321 3.335 3.332 3.312 3.289 3.321 3.553 3.330 3.313 3.302 3.331 3.304 3.300 3.324 3.627 3.267 3.301 3.319 3.334 3.326 3.302 3.301 3.328 3.335 3.320 3.300 3.267 3.549 3.325 3.301 3.305 3.321 3.301 3.313 3.329 3.635 3.326 3.289 3.312 3.332 3.334 3.321 3.300 3.016
# coordination-number N 3.174 3.178 3.174 3.182
# coordination-number Ti 7.430
# coordination-number O 2.000 1.984 2.078
# coordination-number H 1.071 0.992 0.991
# diagonal-C6 C 24.29 24.07 23.92 23.96 24.17 24.39 24.07 20.88 23.97 24.15 24.26 23.97 24.24 24.28 24.04 19.97 24.58 24.28 24.09 23.93 24.02 24.27 24.28 24.00 23.92 24.09 24.29 24.58 20.93 24.03 24.27 24.23 24.07 24.27 24.16 23.99 19.89 24.02 24.39 24.16 23.95 23.94 24.08 24.28 25.64
# diagonal-C6 N 15.60 15.60 15.60 15.60
# diagonal-C6 Ti 321.59
# diagonal-C6 O 10.41 10.41 10.39
# diagonal-C6 H 3.06 3.09 3.09
EvdW_6 =   -0.043595
EvdW_8 =   -0.033241

---------- Allocating electronic variables ----------
Initializing wave functions:  reading from 'jdft.wfns'
----- createFluidSolver() ----- (Fluid-side solver setup)
   Initializing fluid molecule 'H2O'
     Initializing site 'O'
       Electron density: proportional to exp(-r/0.36935)*erfc((r-0.51523)/0.36823) with norm 6.826
       Charge density: gaussian nuclear width 0.478731 with net site charge 0.826
       Polarizability: cuspless exponential with width 0.32 and norm 3.73
       Hard sphere radius: 2.57003 bohrs
       Positions in reference frame:
         [ +0.000000 +0.000000 +0.000000 ]
     Initializing site 'H'
       Electron density: proportional to exp(-r/0.34641)*erfc((r-0)/0.390882) with norm 0.587
       Charge density: gaussian nuclear width 0.377945 with net site charge -0.413
       Polarizability: cuspless exponential with width 0.39 and norm 3.3
       Positions in reference frame:
         [ +0.000000 -1.441945 +1.122523 ]
         [ +0.000000 +1.441945 +1.122523 ]
     Net charge: 0   dipole magnitude: 0.927204
     Initializing spherical shell mfKernel with radius 2.61727 Bohr
     deltaS corrections:
       site 'O': -7.54299
       site 'H': -6.83917
   Initializing fluid molecule 'Na+'
     Initializing site 'Na'
       Electron density: proportional to exp(-r/0.19682)*erfc((r-0.71491)/0.41314) with norm 8.1383
       Charge density: gaussian nuclear width 0.365347 with net site charge -1
       Hard sphere radius: 1.86327 bohrs
       Positions in reference frame:
         [ +0.000000 +0.000000 +0.000000 ]
     Net charge: -1   dipole magnitude: 0
     Initializing gaussian mfKernel with width: 1.55004 Bohr
     deltaS corrections:
       site 'Na': -22.3555
   Initializing fluid molecule 'F-'
     Initializing site 'F'
       Electron density: proportional to exp(-r/0.38886)*erfc((r-0)/0.438782) with norm 8
       Charge density: gaussian nuclear width 0.374796 with net site charge 1
       Hard sphere radius: 2.39995 bohrs
       Positions in reference frame:
         [ +0.000000 +0.000000 +0.000000 ]
     Net charge: 1   dipole magnitude: 0
     Initializing gaussian mfKernel with width: 1.59012 Bohr
     deltaS corrections:
       site 'F': -9.04335

Correction to mu due to finite nuclear width = -0.0114303
   Cavity determined by nc: 0.00142 and sigma: 0.707107
   Nonlocal vdW cavity from gaussian model electron density with norm = 8 and sigma = 0.993594 bohr
   Charge asymmetry in cavity with sensitivity pCavity = 36.5 e-bohr/Eh
   Electrostatic cavity expanded by eta = 1.46 bohrs
   Weighted density cavitation model constrained by Nbulk: 0.0049383 bohr^-3, Pvap: 3.14029 kPa, Rvdw: 2.61727 bohr and sigmaBulk: 4.62e-05 Eh/bohr^2 at T: 298 K.
   Weighted density dispersion model using vdW pair potentials with single solvent site with sqrtC6eff: 0.77 SI.
Reading fluid state from 'jdft.fluidState'


---- Citations for features of the code used in this run ----

   Software package:
      R. Sundararaman, K. Letchworth-Weaver, K.A. Schwarz, D. Gunceler, Y. Ozhabes and T.A. Arias, 'JDFTx: software for joint density-functional theory', SoftwareX 6, 278 (2017)

   gga-PBE exchange-correlation functional:
      J.P. Perdew, K. Burke and M. Ernzerhof, Phys. Rev. Lett. 77, 3865 (1996)

   Pseudopotentials:
      KF Garrity, JW Bennett, KM Rabe and D Vanderbilt, Comput. Mater. Sci. 81, 446 (2014)

   DFT-D3 dispersion correction:
      S. Grimme, J. Antony, S. Ehrlich and H. Krieg, J. Chem. Phys. 132, 154104 (2010)

   DFT-D2 dispersion correction:
      S. Grimme, J. Comput. Chem. 27, 1787 (2006)

   Charge-asymmetric nonlocally-determined local-electric (CANDLE) solvation model:
      R. Sundararaman and W.A. Goddard III, J. Chem. Phys. 142, 064107 (2015)

   Total energy minimization with Auxiliary Hamiltonian:
      C. Freysoldt, S. Boeck, and J. Neugebauer, Phys. Rev. B 79, 241103(R) (2009)

   Grand-canonical (fixed-potential) DFT:
      R. Sundararaman, W. A. Goddard III and T. A. Arias, J. Chem. Phys. 146, 114104 (2017)

   Linear-tetrahedron sampling for density of states:
      G. Lehmann and M. Taut, Phys. status solidi (b) 54, 469 (1972)

This list may not be complete. Please suggest additional citations or
report any other bugs at https://github.com/shankar1729/jdftx/issues

Initialization completed successfully at t[s]:     25.62


Computing DFT-D3 correction:
# coordination-number C 3.299 3.321 3.335 3.332 3.312 3.289 3.321 3.553 3.330 3.313 3.302 3.331 3.304 3.300 3.324 3.627 3.267 3.301 3.319 3.334 3.326 3.302 3.301 3.328 3.335 3.320 3.300 3.267 3.549 3.325 3.301 3.305 3.321 3.301 3.313 3.329 3.635 3.326 3.289 3.312 3.332 3.334 3.321 3.300 3.016
# coordination-number N 3.174 3.178 3.174 3.182
# coordination-number Ti 7.430
# coordination-number O 2.000 1.984 2.078
# coordination-number H 1.071 0.992 0.991
# diagonal-C6 C 24.29 24.07 23.92 23.96 24.17 24.39 24.07 20.88 23.97 24.15 24.26 23.97 24.24 24.28 24.04 19.97 24.58 24.28 24.09 23.93 24.02 24.27 24.28 24.00 23.92 24.09 24.29 24.58 20.93 24.03 24.27 24.23 24.07 24.27 24.16 23.99 19.89 24.02 24.39 24.16 23.95 23.94 24.08 24.28 25.64
# diagonal-C6 N 15.60 15.60 15.60 15.60
# diagonal-C6 Ti 321.59
# diagonal-C6 O 10.41 10.41 10.39
# diagonal-C6 H 3.06 3.09 3.09
EvdW_6 =   -0.043595
EvdW_8 =   -0.033241
Shifting auxilliary hamiltonian by 0.003339 to set nElectrons=233.000000

-------- Electronic minimization -----------
	Linear fluid (dielectric constant: 78.4, screening length: 8.12261 Bohr) occupying 0.707366 of unit cell:	Completed after 3 iterations at t[s]:     58.62
	FillingsUpdate:  mu: -0.127200000  nElectrons: 233.000000  magneticMoment: [ Abs: 0.64625  Tot: +0.55141 ]
ElecMinimize: Iter:   0  G: -375.761773460247184  |grad|_K:  1.753e-06  alpha:  1.000e+00
	Linear fluid (dielectric constant: 78.4, screening length: 8.12261 Bohr) occupying 0.709711 of unit cell:	Completed after 19 iterations at t[s]:    192.46
	Linear fluid (dielectric constant: 78.4, screening length: 8.12261 Bohr) occupying 0.707455 of unit cell:	Completed after 19 iterations at t[s]:    249.76
	FillingsUpdate:  mu: -0.127200000  nElectrons: 233.027281  magneticMoment: [ Abs: 0.66964  Tot: +0.57781 ]
	SubspaceRotationAdjust: set factor to 0.534
ElecMinimize: Iter:   1  G: -375.761782313866604  |grad|_K:  2.442e-06  alpha:  5.767e-02  linmin:  6.718e-03  t[s]:    310.76
	Linear fluid (dielectric constant: 78.4, screening length: 8.12261 Bohr) occupying 0.707534 of unit cell:	Completed after 11 iterations at t[s]:    370.96
	Linear fluid (dielectric constant: 78.4, screening length: 8.12261 Bohr) occupying 0.707564 of unit cell:	Completed after 8 iterations at t[s]:    425.08
	FillingsUpdate:  mu: -0.127200000  nElectrons: 233.064140  magneticMoment: [ Abs: 0.69497  Tot: +0.60992 ]
	SubspaceRotationAdjust: set factor to 0.285
ElecMinimize: Iter:   2  G: -375.761808985060213  |grad|_K:  2.751e-06  alpha:  7.795e-02  linmin: -1.520e-05  t[s]:    487.96
	Linear fluid (dielectric constant: 78.4, screening length: 8.12261 Bohr) occupying 0.707586 of unit cell:	Completed after 12 iterations at t[s]:    548.71
	Linear fluid (dielectric constant: 78.4, screening length: 8.12261 Bohr) occupying 0.707576 of unit cell:	Completed after 8 iterations at t[s]:    599.00
	FillingsUpdate:  mu: -0.127200000  nElectrons: 233.077624  magneticMoment: [ Abs: 0.69521  Tot: +0.61503 ]
	SubspaceRotationAdjust: set factor to 0.568
ElecMinimize: Iter:   3  G: -375.761903017173097  |grad|_K:  4.368e-07  alpha:  5.648e-02  linmin:  5.816e-07  t[s]:    661.01
	Linear fluid (dielectric constant: 78.4, screening length: 8.12261 Bohr) occupying 0.707569 of unit cell:	Completed after 3 iterations at t[s]:    716.25
ElecMinimize: 	Predicted alpha/alphaT>3.000000, increasing alphaT to 1.694285e-01.
	Linear fluid (dielectric constant: 78.4, screening length: 8.12261 Bohr) occupying 0.707557 of unit cell:	Completed after 4 iterations at t[s]:    763.73
	Linear fluid (dielectric constant: 78.4, screening length: 8.12261 Bohr) occupying 0.707532 of unit cell:	Completed after 7 iterations at t[s]:    813.88
	FillingsUpdate:  mu: -0.127200000  nElectrons: 233.077220  magneticMoment: [ Abs: 0.69414  Tot: +0.61319 ]
	SubspaceRotationAdjust: set factor to 0.306
ElecMinimize: Iter:   4  G: -375.761919932032527  |grad|_K:  7.240e-07  alpha:  4.033e-01  linmin: -3.349e-04  t[s]:    875.47
	Linear fluid (dielectric constant: 78.4, screening length: 8.12261 Bohr) occupying 0.707605 of unit cell:	Completed after 12 iterations at t[s]:    936.10
	Linear fluid (dielectric constant: 78.4, screening length: 8.12261 Bohr) occupying 0.707543 of unit cell:	Completed after 13 iterations at t[s]:    990.08
	FillingsUpdate:  mu: -0.127200000  nElectrons: 233.085364  magneticMoment: [ Abs: 0.70181  Tot: +0.62066 ]
	SubspaceRotationAdjust: set factor to 0.205
ElecMinimize: Iter:   5  G: -375.761927687207447  |grad|_K:  2.434e-07  alpha:  6.833e-02  linmin:  2.835e-04  t[s]:   1050.93
	Linear fluid (dielectric constant: 78.4, screening length: 8.12261 Bohr) occupying 0.707540 of unit cell:	Completed after 0 iterations at t[s]:   1103.98
ElecMinimize: 	Predicted alpha/alphaT>3.000000, increasing alphaT to 2.049983e-01.
	Linear fluid (dielectric constant: 78.4, screening length: 8.12261 Bohr) occupying 0.707533 of unit cell:	Completed after 2 iterations at t[s]:   1150.18
ElecMinimize: 	Predicted alpha/alphaT>3.000000, increasing alphaT to 6.149949e-01.
	Linear fluid (dielectric constant: 78.4, screening length: 8.12261 Bohr) occupying 0.707512 of unit cell:	Completed after 3 iterations at t[s]:   1197.15
	Linear fluid (dielectric constant: 78.4, screening length: 8.12261 Bohr) occupying 0.707511 of unit cell:	Completed after 0 iterations at t[s]:   1241.07
	FillingsUpdate:  mu: -0.127200000  nElectrons: 233.091848  magneticMoment: [ Abs: 0.70970  Tot: +0.62702 ]
	SubspaceRotationAdjust: set factor to 0.263
ElecMinimize: Iter:   6  G: -375.761935809323234  |grad|_K:  1.361e-07  alpha:  6.439e-01  linmin: -2.410e-04  t[s]:   1302.61
	Linear fluid (dielectric constant: 78.4, screening length: 8.12261 Bohr) occupying 0.707470 of unit cell:	Completed after 3 iterations at t[s]:   1357.94
	Linear fluid (dielectric constant: 78.4, screening length: 8.12261 Bohr) occupying 0.707478 of unit cell:	Completed after 2 iterations at t[s]:   1404.13
	FillingsUpdate:  mu: -0.127200000  nElectrons: 233.091468  magneticMoment: [ Abs: 0.71026  Tot: +0.62676 ]
	SubspaceRotationAdjust: set factor to 0.174
ElecMinimize: Iter:   7  G: -375.761937936277832  |grad|_K:  1.906e-07  alpha:  5.210e-01  linmin:  1.902e-04  t[s]:   1464.93
	Linear fluid (dielectric constant: 78.4, screening length: 8.12261 Bohr) occupying 0.707452 of unit cell:	Completed after 7 iterations at t[s]:   1522.82
	Linear fluid (dielectric constant: 78.4, screening length: 8.12261 Bohr) occupying 0.707469 of unit cell:	Completed after 6 iterations at t[s]:   1571.40
	FillingsUpdate:  mu: -0.127200000  nElectrons: 233.094785  magneticMoment: [ Abs: 0.71413  Tot: +0.63016 ]
	SubspaceRotationAdjust: set factor to 0.112
	SubspaceRotationAdjust: resetting CG because factor has changed by 0.112068
	Linear fluid (dielectric constant: 78.4, screening length: 8.12261 Bohr) occupying 0.707469 of unit cell:	Completed after 0 iterations at t[s]:   1658.70
ElecMinimize: 	State modified externally: resetting search direction.
ElecMinimize: Iter:   8  G: -375.761939316250562  |grad|_K:  7.209e-08  alpha:  1.755e-01
	Linear fluid (dielectric constant: 78.4, screening length: 8.12261 Bohr) occupying 0.707468 of unit cell:	Completed after 1 iterations at t[s]:   1772.79
	Linear fluid (dielectric constant: 78.4, screening length: 8.12261 Bohr) occupying 0.707465 of unit cell:	Completed after 2 iterations at t[s]:   1818.16
	FillingsUpdate:  mu: -0.127200000  nElectrons: 233.094403  magneticMoment: [ Abs: 0.71394  Tot: +0.62985 ]
	SubspaceRotationAdjust: set factor to 0.154
ElecMinimize: Iter:   9  G: -375.761939774821030  |grad|_K:  4.507e-08  alpha:  4.012e-01  linmin: -2.319e-03  t[s]:   1879.40
	Linear fluid (dielectric constant: 78.4, screening length: 8.12261 Bohr) occupying 0.707466 of unit cell:	Completed after 2 iterations at t[s]:   1933.80
	Linear fluid (dielectric constant: 78.4, screening length: 8.12261 Bohr) occupying 0.707466 of unit cell:	Completed after 0 iterations at t[s]:   1977.36
	FillingsUpdate:  mu: -0.127200000  nElectrons: 233.095157  magneticMoment: [ Abs: 0.71496  Tot: +0.63071 ]
	SubspaceRotationAdjust: set factor to 0.18
ElecMinimize: Iter:  10  G: -375.761940029329139  |grad|_K:  3.399e-08  alpha:  5.234e-01  linmin: -2.921e-03  t[s]:   2038.76
	Linear fluid (dielectric constant: 78.4, screening length: 8.12261 Bohr) occupying 0.707464 of unit cell:	Completed after 0 iterations at t[s]:   2091.34
	Linear fluid (dielectric constant: 78.4, screening length: 8.12261 Bohr) occupying 0.707462 of unit cell:	Completed after 2 iterations at t[s]:   2136.57
	FillingsUpdate:  mu: -0.127200000  nElectrons: 233.095837  magneticMoment: [ Abs: 0.71668  Tot: +0.63176 ]
	SubspaceRotationAdjust: set factor to 0.208
ElecMinimize: Iter:  11  G: -375.761940313298680  |grad|_K:  4.836e-08  alpha:  1.199e+00  linmin:  7.149e-04  t[s]:   2198.29
	Linear fluid (dielectric constant: 78.4, screening length: 8.12261 Bohr) occupying 0.707447 of unit cell:	Completed after 2 iterations at t[s]:   2251.88
	Linear fluid (dielectric constant: 78.4, screening length: 8.12261 Bohr) occupying 0.707458 of unit cell:	Completed after 2 iterations at t[s]:   2297.73
	FillingsUpdate:  mu: -0.127200000  nElectrons: 233.096027  magneticMoment: [ Abs: 0.71769  Tot: +0.63223 ]
	SubspaceRotationAdjust: set factor to 0.21
ElecMinimize: Iter:  12  G: -375.761940448152245  |grad|_K:  4.659e-08  alpha:  3.362e-01  linmin:  6.440e-05  t[s]:   2358.70
	Linear fluid (dielectric constant: 78.4, screening length: 8.12261 Bohr) occupying 0.707457 of unit cell:	Completed after 1 iterations at t[s]:   2411.80
	Linear fluid (dielectric constant: 78.4, screening length: 8.12261 Bohr) occupying 0.707457 of unit cell:	Completed after 0 iterations at t[s]:   2455.52
	FillingsUpdate:  mu: -0.127200000  nElectrons: 233.096846  magneticMoment: [ Abs: 0.71931  Tot: +0.63333 ]
	SubspaceRotationAdjust: set factor to 0.186
ElecMinimize: Iter:  13  G: -375.761940580608155  |grad|_K:  4.127e-08  alpha:  2.831e-01  linmin:  1.674e-04  t[s]:   2515.88
	Linear fluid (dielectric constant: 78.4, screening length: 8.12261 Bohr) occupying 0.707455 of unit cell:	Completed after 0 iterations at t[s]:   2568.70
	Linear fluid (dielectric constant: 78.4, screening length: 8.12261 Bohr) occupying 0.707452 of unit cell:	Completed after 1 iterations at t[s]:   2613.37
	FillingsUpdate:  mu: -0.127200000  nElectrons: 233.097172  magneticMoment: [ Abs: 0.72119  Tot: +0.63420 ]
	SubspaceRotationAdjust: set factor to 0.183
ElecMinimize: Iter:  14  G: -375.761940737779923  |grad|_K:  3.300e-08  alpha:  5.454e-01  linmin:  3.396e-04  t[s]:   2675.03
	Linear fluid (dielectric constant: 78.4, screening length: 8.12261 Bohr) occupying 0.707451 of unit cell:	Completed after 2 iterations at t[s]:   2729.33
	Linear fluid (dielectric constant: 78.4, screening length: 8.12261 Bohr) occupying 0.707452 of unit cell:	Completed after 0 iterations at t[s]:   2773.07
	FillingsUpdate:  mu: -0.127200000  nElectrons: 233.097370  magneticMoment: [ Abs: 0.72187  Tot: +0.63457 ]
	SubspaceRotationAdjust: set factor to 0.193
ElecMinimize: Iter:  15  G: -375.761940782656040  |grad|_K:  2.484e-08  alpha:  2.602e-01  linmin:  1.960e-04  t[s]:   2834.60
	Linear fluid (dielectric constant: 78.4, screening length: 8.12261 Bohr) occupying 0.707453 of unit cell:	Completed after 0 iterations at t[s]:   2886.28
	Linear fluid (dielectric constant: 78.4, screening length: 8.12261 Bohr) occupying 0.707454 of unit cell:	Completed after 0 iterations at t[s]:   2930.93
	FillingsUpdate:  mu: -0.127200000  nElectrons: 233.097908  magneticMoment: [ Abs: 0.72278  Tot: +0.63524 ]
	SubspaceRotationAdjust: set factor to 0.214
ElecMinimize: Iter:  16  G: -375.761940829328807  |grad|_K:  2.649e-08  alpha:  4.277e-01  linmin:  3.040e-04  t[s]:   2991.73
ElecMinimize: Converged (|Delta G|<1.000000e-07 for 2 iters).
Setting wave functions to eigenvectors of Hamiltonian
Converging empty states (this may take a while): |deigs|: 1.534e-06

Computing DFT-D3 correction:
# coordination-number C 3.299 3.321 3.335 3.332 3.312 3.289 3.321 3.553 3.330 3.313 3.302 3.331 3.304 3.300 3.324 3.627 3.267 3.301 3.319 3.334 3.326 3.302 3.301 3.328 3.335 3.320 3.300 3.267 3.549 3.325 3.301 3.305 3.321 3.301 3.313 3.329 3.635 3.326 3.289 3.312 3.332 3.334 3.321 3.300 3.016
# coordination-number N 3.174 3.178 3.174 3.182
# coordination-number Ti 7.430
# coordination-number O 2.000 1.984 2.078
# coordination-number H 1.071 0.992 0.991
# diagonal-C6 C 24.29 24.07 23.92 23.96 24.17 24.39 24.07 20.88 23.97 24.15 24.26 23.97 24.24 24.28 24.04 19.97 24.58 24.28 24.09 23.93 24.02 24.27 24.28 24.00 23.92 24.09 24.29 24.58 20.93 24.03 24.27 24.23 24.07 24.27 24.16 23.99 19.89 24.02 24.39 24.16 23.95 23.94 24.08 24.28 25.64
# diagonal-C6 N 15.60 15.60 15.60 15.60
# diagonal-C6 Ti 321.59
# diagonal-C6 O 10.41 10.41 10.39
# diagonal-C6 H 3.06 3.09 3.09
EvdW_6 =   -0.043595
EvdW_8 =   -0.033241

# Ionic positions in cartesian coordinates:
ion C   0.056081645455751   0.036034634590127  43.349204170808925 1
ion C  21.102681227170756   3.993816252992388  43.327826736763114 1
ion C  18.756786951928856   7.998323251442999  43.212488085183566 1
ion C  -6.989466079534566  11.998739544795043  43.211477313865444 1
ion C  -9.318151988899675  16.007880416191178  43.305274191159462 1
ion C   4.739389423614662   0.138186898731091   0.108830398315899 1
ion C   2.349373165333211   4.160812804937448   0.227678685149651 1
ion C  -0.067699232192433   7.981827149788071   0.182640948558435 1
ion C  -2.374136866182559  11.986261997511750  43.308190981537550 1
ion C  -4.667486587867756  16.013615066096079  43.304388028893065 1
ion C   9.433524265943838   0.027735300469263  43.298766793366738 1
ion C   7.147640252638013   4.136602793107679   0.105736083971618 1
ion C   0.027773200457130  15.914006077594470   0.126474901266286 1
ion C   2.403533437387392  19.878847930917857  43.329935720685917 1
ion C  11.817484273654713   3.979948519225622  43.226853275490491 1
ion C   9.528882450858772   7.968577009265419   0.031815413934003 1
ion C   4.725696060188527  15.779399237552630   0.231647044080289 1
ion C   7.052806757282195  19.885595990116375  43.348452124992086 1
ion C  16.459787195558057   3.966710178145866  43.240271370032772 1
ion C  14.152933742664398   7.989788335544032  43.176690682280721 1
ion C  11.830011663158036  11.990341187763871  43.271985010089573 1
ion C   9.425907510740815  15.929135449195959   0.100287554040524 1
ion C   0.043991185101659   2.719948415380417   0.121869197013089 1
ion C  -2.364952222070405   6.650051168630482  43.300832478918835 1
ion C  -4.684189366217299  10.649460401557413  43.219403766421053 1
ion C  -6.991902267013335  14.672971294500277  43.270981156084076 1
ion C  -9.316844669347153  18.696918446626039  43.348197517007272 1
ion C   4.741016150203709   2.859235209736077   0.174897781643936 1
ion C  -0.066675892319624  10.666078582600971   0.181523311334831 1
ion C  -2.347379554340618  14.656181687066670  43.333789283152747 1
ion C  -4.666079411900226  18.698240536079368  43.324619382421332 1
ion C   9.448220660242288   2.706259253698892   0.012456582059753 1
ion C   2.328907801422213  14.475379991430449   0.253581279657815 1
ion C   0.042920196987975  18.594207439418387  43.329496405846079 1
ion C  14.138458118497860   2.623749444345457  43.255092115385608 1
ion C  11.844489056133792   6.651088193140949  43.202936791184129 1
ion C   9.521144861158193  10.658729626258740   0.090263795642189 1
ion C   7.122137962863645  14.499715327009206   0.203384665088354 1
ion C   4.727406377993663  18.500018947750497   0.133910634862431 1
ion C  18.786669589585443   2.631110790325780  43.298885673241564 1
ion C  16.457374063460442   6.641946373020792  43.187948839103584 1
ion C  14.145619087535389  10.661482490819060  43.198984544733882 1
ion C  11.800708034234365  14.662738326047405  43.312464432974224 1
ion C   9.415876757589409  18.612393190251449  43.347216740564896 1
ion C   4.312547934145906   9.805541991636552   5.590357920142516 1
ion N   2.214585284605370  11.888472302237407   0.379296251500354 1
ion N   7.234886495922183  11.901870404282944   0.298121965363549 1
ion N   2.223114429134645   6.761365146538663   0.383503455941336 1
ion N   7.258691449175995   6.716452567952157   0.167855363965872 1
ion Ti   4.830280143219994   9.294917393076030   1.777361090370418 1
ion O   3.570940359508171  10.433990632543058   7.850723994426652 1
ion O   6.085001065256503   8.177509265996843   5.285092399138377 1
ion O   0.146462504246660  13.712093695936135   7.174296590469236 1
ion H   2.126616165260875  11.788640560998125   7.643397647302906 1
ion H   0.601898892064616  15.345331728262273   7.942174612857282 1
ion H  -1.495886711700400  13.257209148870171   7.926861819714398 1

# Forces in Cartesian coordinates:
force C  -0.000064191180278   0.000009987528881   0.000104657618870 1
force C  -0.000248907112856  -0.000194042970446   0.000003837566497 1
force C   0.000076237629750  -0.000155452237072   0.000104621587372 1
force C  -0.000119763840507  -0.000083437593777   0.000113100784851 1
force C  -0.000226019238321  -0.000126068201653  -0.000046776868525 1
force C  -0.000188717695880  -0.000218820857422   0.000005008360528 1
force C  -0.000228205268179   0.000021934368682   0.000130927684530 1
force C  -0.000163922104117  -0.000110089016637  -0.000342939388120 1
force C  -0.000043321790619  -0.000345821639535  -0.000136301782938 1
force C   0.000144648279996  -0.000199139952728  -0.000020967436473 1
force C  -0.000223990275651  -0.000136749857022   0.000189881103847 1
force C   0.000173810434404  -0.000048170456966  -0.000036477129939 1
force C   0.000048846635930   0.000002574124831  -0.000000627008349 1
force C   0.000001925020175  -0.000325902088910  -0.000107197081478 1
force C   0.000321374602006  -0.000150992143227   0.000061341300599 1
force C  -0.000097565918464   0.000087229273472   0.000219740362030 1
force C   0.000024236151532  -0.000004920136881  -0.000103444313790 1
force C   0.000218284183285  -0.000165440811587   0.000101187332720 1
force C  -0.000032294046940  -0.000038914582598  -0.000024497652081 1
force C  -0.000053056026114  -0.000169434278718  -0.000029952019800 1
force C   0.000162596450615   0.000248110463773   0.000089613480567 1
force C  -0.000339468036184  -0.000070614230166  -0.000067385914692 1
force C   0.000171436954859   0.000028061481380   0.000117791767316 1
force C  -0.000033432861798   0.000471330236178  -0.000165460360042 1
force C   0.000006137160169   0.000053356668884   0.000087237708685 1
force C  -0.000004164117044  -0.000268574588144  -0.000004278785791 1
force C   0.000098395380717   0.000138830313250  -0.000074746502161 1
force C   0.000105898043042  -0.000129101984508   0.000089083256810 1
force C  -0.000069792140549  -0.000003835913409  -0.000266048205432 1
force C  -0.000181095444908   0.000180319256242  -0.000076328992428 1
force C   0.000335408710858   0.000068744527257   0.000074709731424 1
force C  -0.000326496121922   0.000219877831547   0.000188720308747 1
force C  -0.000157309381445  -0.000047224140110   0.000067113307158 1
force C   0.000023088433002   0.000087430322524   0.000009773229362 1
force C  -0.000158184091253   0.000108495677785  -0.000033177384725 1
force C   0.000195980410709  -0.000158778368633   0.000101951366361 1
force C  -0.000081513279628  -0.000117512995305   0.000089096812536 1
force C   0.000352294798288  -0.000001979833132  -0.000257640128987 1
force C  -0.000150171501512   0.000166619766851  -0.000087107033167 1
force C   0.000246788463375   0.000190805310898  -0.000012181159590 1
force C  -0.000177606317641  -0.000098119007978   0.000073445973969 1
force C  -0.000014323774949   0.000048412525488   0.000025658636745 1
force C   0.000376703002759   0.000127413018262   0.000014166408592 1
force C  -0.000192531270875   0.000092558386665   0.000139549091532 1
force C  -0.000089296317826   0.000546868017583  -0.002239162419452 1
force N  -0.000359112081275  -0.000115944960199  -0.000143229161429 1
force N   0.000205691024784   0.000507184166103  -0.000138928317793 1
force N  -0.000339720460378   0.000134202780278   0.000339347295105 1
force N   0.000145407802541  -0.000097169932726  -0.000242245577004 1
force Ti   0.000820761868366  -0.000256056879931   0.000328732184442 1
force O  -0.000314273791176   0.000498296877193   0.001495838109069 1
force O   0.000381833584998  -0.000369446531924   0.000598650347648 1
force O  -0.000662394256296  -0.000221227681946   0.000004482533195 1
force H   0.000026375698578  -0.000147877255558   0.000104146018070 1
force H  -0.000341501784278   0.000670638747808   0.000047509180308 1
force H   0.000319477346323   0.000166333279585  -0.000154143524012 1

# Energy components:
   A_diel =       -0.0241507177626356
   Eewald =     1702.4136841634165194
       EH =     2033.6411407677419447
     Eloc =    -4292.1464736351381362
      Enl =       54.7902479553763797
     EvdW =       -0.0768351963024804
      Exc =     -113.5990427436878321
 Exc_core =        3.3745783715449100
       KE =      206.2165308501802201
  MuShift =       -0.0011191154149692
-------------------------------------
     Etot =     -405.4114393000460836
       TS =        0.0005554440117286
-------------------------------------
        F =     -405.4119947440578358
      muN =      -29.6500539147290105
-------------------------------------
        G =     -375.7619408293288075


Dumping 'jdft.fillings' ... done
Dumping 'jdft.wfns' ... done
Dumping 'jdft.fluidState' ... done
Dumping 'jdft.ionpos' ... done
Dumping 'jdft.lattice' ... done
Dumping 'jdft.eigenvals' ... done
Dumping 'jdft.eigStats' ... 
	eMin: -2.256716 at state 0 ( [ +0.000000 +0.000000 +0.000000 ] spin 1 )
	HOMO: -0.127621 at state 2 ( [ +0.000000 -0.333333 +0.000000 ] spin 1 )
	mu  : -0.127200
	LUMO: -0.125588 at state 4 ( [ +0.333333 +0.333333 +0.000000 ] spin 1 )
	eMax: +0.022763 at state 9 ( [ +0.000000 +0.000000 +0.000000 ] spin -1 )
	HOMO-LUMO gap: +0.002034
	Optical gap  : +0.003740 at state 2 ( [ +0.000000 -0.333333 +0.000000 ] spin 1 )
Dumping 'jdft.Ecomponents' ... done
IonicMinimize: Iter:   0  G: -375.761940829328807  |grad|_K:  2.961e-04  t[s]:   3281.23

#--- Lowdin population analysis ---
# oxidation-state C +0.035 +0.042 +0.035 +0.042 +0.034 +0.038 +0.161 +0.129 +0.027 +0.034 +0.035 +0.167 +0.024 +0.037 +0.044 +0.122 -0.007 +0.038 +0.030 +0.036 +0.025 +0.018 +0.022 +0.025 +0.034 +0.030 +0.038 -0.010 +0.132 +0.046 +0.037 +0.017 +0.171 +0.035 +0.034 +0.025 +0.116 +0.165 +0.038 +0.034 +0.043 +0.037 +0.042 +0.036 +0.183
# magnetic-moments C +0.001 +0.008 +0.003 +0.002 +0.001 +0.003 +0.008 +0.007 +0.003 +0.002 +0.001 +0.003 -0.000 +0.003 -0.001 -0.000 -0.002 +0.003 +0.001 +0.000 +0.005 +0.010 -0.002 +0.002 +0.004 -0.000 +0.002 -0.003 +0.001 +0.002 +0.004 +0.010 +0.004 +0.000 +0.001 +0.006 +0.005 +0.005 +0.001 +0.001 +0.002 -0.000 +0.002 -0.000 +0.034
# oxidation-state N -0.307 -0.320 -0.321 -0.320
# magnetic-moments N -0.003 -0.004 -0.004 +0.001
# oxidation-state Ti +1.378
# magnetic-moments Ti +0.469
# oxidation-state O -0.409 -0.452 -0.682
# magnetic-moments O +0.009 +0.005 -0.000
# oxidation-state H +0.395 +0.478 +0.478
# magnetic-moments H -0.000 -0.000 -0.000


Computing DFT-D3 correction:
# coordination-number C 3.299 3.321 3.335 3.332 3.312 3.288 3.321 3.553 3.330 3.313 3.302 3.331 3.304 3.300 3.324 3.628 3.267 3.301 3.320 3.334 3.326 3.302 3.301 3.328 3.335 3.320 3.300 3.267 3.549 3.325 3.301 3.305 3.321 3.301 3.313 3.329 3.635 3.326 3.289 3.312 3.332 3.334 3.321 3.300 3.016
# coordination-number N 3.174 3.178 3.174 3.182
# coordination-number Ti 7.429
# coordination-number O 2.000 1.984 2.078
# coordination-number H 1.071 0.992 0.992
# diagonal-C6 C 24.29 24.07 23.92 23.96 24.17 24.39 24.07 20.88 23.97 24.15 24.26 23.97 24.24 24.28 24.04 19.96 24.58 24.28 24.09 23.93 24.02 24.26 24.28 24.00 23.92 24.09 24.29 24.57 20.94 24.03 24.27 24.23 24.07 24.27 24.16 23.99 19.88 24.02 24.39 24.16 23.95 23.94 24.08 24.28 25.64
# diagonal-C6 N 15.60 15.60 15.60 15.60
# diagonal-C6 Ti 321.59
# diagonal-C6 O 10.41 10.41 10.39
# diagonal-C6 H 3.06 3.09 3.09
EvdW_6 =   -0.043594
EvdW_8 =   -0.033242
Shifting auxilliary hamiltonian by 0.000034 to set nElectrons=233.097908

-------- Electronic minimization -----------
	Linear fluid (dielectric constant: 78.4, screening length: 8.12261 Bohr) occupying 0.707459 of unit cell:	Completed after 3 iterations at t[s]:   3345.39
	FillingsUpdate:  mu: -0.127200000  nElectrons: 233.097908  magneticMoment: [ Abs: 0.72327  Tot: +0.63542 ]
ElecMinimize: Iter:   0  G: -375.761945942053728  |grad|_K:  1.500e-07  alpha:  1.000e+00
	Linear fluid (dielectric constant: 78.4, screening length: 8.12261 Bohr) occupying 0.707454 of unit cell:	Completed after 3 iterations at t[s]:   3466.94
	Linear fluid (dielectric constant: 78.4, screening length: 8.12261 Bohr) occupying 0.707456 of unit cell:	Completed after 2 iterations at t[s]:   3512.46
	FillingsUpdate:  mu: -0.127200000  nElectrons: 233.097873  magneticMoment: [ Abs: 0.72298  Tot: +0.63522 ]
	SubspaceRotationAdjust: set factor to 0.178
ElecMinimize: Iter:   1  G: -375.761949368641240  |grad|_K:  1.077e-07  alpha:  6.978e-01  linmin:  2.315e-04  t[s]:   3572.82
	Linear fluid (dielectric constant: 78.4, screening length: 8.12261 Bohr) occupying 0.707481 of unit cell:	Completed after 7 iterations at t[s]:   3629.68
	Linear fluid (dielectric constant: 78.4, screening length: 8.12261 Bohr) occupying 0.707462 of unit cell:	Completed after 6 iterations at t[s]:   3677.13
	FillingsUpdate:  mu: -0.127200000  nElectrons: 233.099428  magneticMoment: [ Abs: 0.72439  Tot: +0.63672 ]
	SubspaceRotationAdjust: set factor to 0.106
ElecMinimize: Iter:   2  G: -375.761949822028782  |grad|_K:  6.831e-08  alpha:  1.701e-01  linmin:  1.169e-03  t[s]:   3737.53
	Linear fluid (dielectric constant: 78.4, screening length: 8.12261 Bohr) occupying 0.707461 of unit cell:	Completed after 0 iterations at t[s]:   3789.25
ElecMinimize: 	Predicted alpha/alphaT>3.000000, increasing alphaT to 5.102532e-01.
	Linear fluid (dielectric constant: 78.4, screening length: 8.12261 Bohr) occupying 0.707460 of unit cell:	Completed after 2 iterations at t[s]:   3833.81
	Linear fluid (dielectric constant: 78.4, screening length: 8.12261 Bohr) occupying 0.707460 of unit cell:	Completed after 0 iterations at t[s]:   3877.04
	FillingsUpdate:  mu: -0.127200000  nElectrons: 233.099517  magneticMoment: [ Abs: 0.72443  Tot: +0.63675 ]
	SubspaceRotationAdjust: set factor to 0.166
ElecMinimize: Iter:   3  G: -375.761950415788306  |grad|_K:  4.109e-08  alpha:  5.972e-01  linmin: -1.283e-03  t[s]:   3937.91
	Linear fluid (dielectric constant: 78.4, screening length: 8.12261 Bohr) occupying 0.707456 of unit cell:	Completed after 1 iterations at t[s]:   3990.84
	Linear fluid (dielectric constant: 78.4, screening length: 8.12261 Bohr) occupying 0.707457 of unit cell:	Completed after 0 iterations at t[s]:   4034.43
	FillingsUpdate:  mu: -0.127200000  nElectrons: 233.099307  magneticMoment: [ Abs: 0.72423  Tot: +0.63653 ]
	SubspaceRotationAdjust: set factor to 0.112
ElecMinimize: Iter:   4  G: -375.761950578461892  |grad|_K:  5.630e-08  alpha:  4.203e-01  linmin:  1.664e-03  t[s]:   4094.75
	Linear fluid (dielectric constant: 78.4, screening length: 8.12261 Bohr) occupying 0.707461 of unit cell:	Completed after 3 iterations at t[s]:   4149.63
	Linear fluid (dielectric constant: 78.4, screening length: 8.12261 Bohr) occupying 0.707459 of unit cell:	Completed after 1 iterations at t[s]:   4194.56
	FillingsUpdate:  mu: -0.127200000  nElectrons: 233.100007  magneticMoment: [ Abs: 0.72490  Tot: +0.63720 ]
	SubspaceRotationAdjust: set factor to 0.113
ElecMinimize: Iter:   5  G: -375.761950681838073  |grad|_K:  2.752e-08  alpha:  1.925e-01  linmin:  5.862e-04  t[s]:   4254.43
	Linear fluid (dielectric constant: 78.4, screening length: 8.12261 Bohr) occupying 0.707459 of unit cell:	Completed after 0 iterations at t[s]:   4305.97
ElecMinimize: 	Predicted alpha/alphaT>3.000000, increasing alphaT to 5.773794e-01.
	Linear fluid (dielectric constant: 78.4, screening length: 8.12261 Bohr) occupying 0.707460 of unit cell:	Completed after 0 iterations at t[s]:   4348.98
	Linear fluid (dielectric constant: 78.4, screening length: 8.12261 Bohr) occupying 0.707460 of unit cell:	Completed after 1 iterations at t[s]:   4393.44
	FillingsUpdate:  mu: -0.127200000  nElectrons: 233.100612  magneticMoment: [ Abs: 0.72546  Tot: +0.63776 ]
	SubspaceRotationAdjust: set factor to 0.135
ElecMinimize: Iter:   6  G: -375.761950758898877  |grad|_K:  2.445e-08  alpha:  7.093e-01  linmin:  1.541e-03  t[s]:   4453.72
	Linear fluid (dielectric constant: 78.4, screening length: 8.12261 Bohr) occupying 0.707459 of unit cell:	Completed after 0 iterations at t[s]:   4505.28
	Linear fluid (dielectric constant: 78.4, screening length: 8.12261 Bohr) occupying 0.707458 of unit cell:	Completed after 2 iterations at t[s]:   4550.46
	FillingsUpdate:  mu: -0.127200000  nElectrons: 233.100672  magneticMoment: [ Abs: 0.72552  Tot: +0.63775 ]
	SubspaceRotationAdjust: set factor to 0.117
ElecMinimize: Iter:   7  G: -375.761950776645847  |grad|_K:  3.977e-08  alpha:  1.220e+00  linmin:  2.896e-03  t[s]:   4611.42
ElecMinimize: Converged (|Delta G|<1.000000e-07 for 2 iters).
Setting wave functions to eigenvectors of Hamiltonian
Converging empty states (this may take a while): |deigs|: 1.129e-08

Computing DFT-D3 correction:
# coordination-number C 3.299 3.321 3.335 3.332 3.312 3.288 3.321 3.553 3.330 3.313 3.302 3.331 3.304 3.300 3.324 3.628 3.267 3.301 3.320 3.334 3.326 3.302 3.301 3.328 3.335 3.320 3.300 3.267 3.549 3.325 3.301 3.305 3.321 3.301 3.313 3.329 3.635 3.326 3.289 3.312 3.332 3.334 3.321 3.300 3.016
# coordination-number N 3.174 3.178 3.174 3.182
# coordination-number Ti 7.429
# coordination-number O 2.000 1.984 2.078
# coordination-number H 1.071 0.992 0.992
# diagonal-C6 C 24.29 24.07 23.92 23.96 24.17 24.39 24.07 20.88 23.97 24.15 24.26 23.97 24.24 24.28 24.04 19.96 24.58 24.28 24.09 23.93 24.02 24.26 24.28 24.00 23.92 24.09 24.29 24.57 20.94 24.03 24.27 24.23 24.07 24.27 24.16 23.99 19.88 24.02 24.39 24.16 23.95 23.94 24.08 24.28 25.64
# diagonal-C6 N 15.60 15.60 15.60 15.60
# diagonal-C6 Ti 321.59
# diagonal-C6 O 10.41 10.41 10.39
# diagonal-C6 H 3.06 3.09 3.09
EvdW_6 =   -0.043594
EvdW_8 =   -0.033242

# Ionic positions in cartesian coordinates:
ion C   0.056029931122934   0.036039287229320  43.349303298493837 1
ion C  21.102444796905360   3.993616875132253  43.327825044395659 1
ion C  18.756875666406067   7.998162464316238  43.212587176836983 1
ion C  -6.989573366527614  11.998650772311580  43.211584884716345 1
ion C  -9.318365531290537  16.007749013099833  43.305221884356989 1
ion C   4.739213182766242   0.137962742983981   0.108829876742476 1
ion C   2.349157436912493   4.160829404416441   0.227804082900230 1
ion C  -0.067850677449090   7.981711725881746   0.182292479236364 1
ion C  -2.374167711125716  11.985910840982529  43.308049149820668 1
ion C  -4.667329462740299  16.013410591253660  43.304361531522645 1
ion C   9.433312752515647   0.027593215722552  43.298951144536630 1
ion C   7.147826539919878   4.136549287761024   0.105694076907727 1
ion C   0.027834523940520  15.914003316829614   0.126468744323985 1
ion C   2.403547839255030  19.878516693939261  43.329822993670483 1
ion C  11.817818125104182   3.979792192192706  43.226909086857141 1
ion C   9.528797361787767   7.968658903649203   0.032029624362082 1
ion C   4.725732773187520  15.779388982526058   0.231538069832548 1
ion C   7.053037518312941  19.885425214415100  43.348547782390852 1
ion C  16.459767378358578   3.966665928673580  43.240241342446744 1
ion C  14.152893163485743   7.989613566375627  43.176655200326969 1
ion C  11.830186736456112  11.990583963337956  43.272069093636190 1
ion C   9.425580519552092  15.929059500076104   0.100214638191880 1
ion C   0.044175098903978   2.719971141972110   0.121981458846453 1
ion C  -2.364973178084743   6.650517163976971  43.300661488624840 1
ion C  -4.684170752209670  10.649508423336608  43.219485474195785 1
ion C  -6.991893954282917  14.672697385022444  43.270971347364330 1
ion C  -9.316733797118975  18.697051942049601  43.348117240571156 1
ion C   4.741134525094212   2.859100772861881   0.174981334966795 1
ion C  -0.066733207612712  10.666069411797874   0.181251733195447 1
ion C  -2.347548172938065  14.656356671433224  43.333707424226368 1
ion C  -4.665731526341907  18.698303945716937  43.324688562218803 1
ion C   9.447906640967826   2.706473796640750   0.012639772434549 1
ion C   2.328762968888231  14.475327432400649   0.253642863031021 1
ion C   0.042955762268438  18.594289534851221  43.329500649141487 1
ion C  14.138312411254070   2.623852605133553  43.255053408066935 1
ion C  11.844697513391960   6.650924079882628  43.203033212616539 1
ion C   9.521075824726028  10.658606778373745   0.090347362520773 1
ion C   7.122502734509395  14.499708012286385   0.203121495025415 1
ion C   4.727268683339611  18.500180232627660   0.133817997895313 1
ion C  18.786928854896274   2.631296260746990  43.298867962148023 1
ion C  16.457208933990259   6.641842919123126  43.188016755143600 1
ion C  14.145617240607901  10.661525568454859  43.199004673436676 1
ion C  11.801097214084582  14.662860404175980  43.312473069448870 1
ion C   9.415696703165999  18.612480413748425  43.347350759722474 1
ion C   4.312471114675541   9.806083524764446   5.588113227789112 1
ion N   2.214238649371556  11.888351022387520   0.379147492404973 1
ion N   7.235104663794429  11.902372253559358   0.297977507111805 1
ion N   2.222787185521728   6.761494014429252   0.383837273302489 1
ion N   7.258849333825996   6.716350063129743   0.167607588454917 1
ion Ti   4.831113381935823   9.294656001306409   1.777684292620908 1
ion O   3.570638562564457  10.434483594530560   7.852214302601769 1
ion O   6.085395375688962   8.177134484575230   5.285685519552073 1
ion O   0.145812586837826  13.711867133364501   7.174295543068481 1
ion H   2.126655017806914  11.788487348852879   7.643496263387025 1
ion H   0.601569867127798  15.345997032120394   7.942216592103637 1
ion H  -1.495554757506616  13.257370147260067   7.926702146256435 1

# Forces in Cartesian coordinates:
force C   0.000004942447560   0.000036287565587   0.000098837056021 1
force C  -0.000025428175133   0.000081000357355   0.000006371956522 1
force C  -0.000068482514650   0.000009676504925   0.000084789867574 1
force C  -0.000049447101485  -0.000080253467374   0.000103378285717 1
force C   0.000036239785298  -0.000025405739221  -0.000048478263914 1
force C   0.000010595423253  -0.000081096039256   0.000004829331095 1
force C  -0.000064429967281   0.000041041240730   0.000125303337786 1
force C  -0.000168984705880   0.000029148453828  -0.000320131886039 1
force C  -0.000060456628038  -0.000089640001074  -0.000132402944685 1
force C   0.000043421683622  -0.000079539299645  -0.000020401739226 1
force C  -0.000083827913903   0.000058479150695   0.000177410327252 1
force C   0.000067906665163  -0.000067282458791  -0.000041248373675 1
force C  -0.000035880683248   0.000046222345097   0.000011311537521 1
force C  -0.000057246162514  -0.000068730414066  -0.000106550476575 1
force C   0.000061944306470  -0.000070830628271   0.000062051582298 1
force C   0.000070288497884  -0.000038986947736   0.000176903731668 1
force C   0.000008153693415   0.000026074600137  -0.000119093075888 1
force C   0.000060354935200   0.000035453443228   0.000088126334726 1
force C  -0.000049385180278  -0.000019031921076  -0.000023234798988 1
force C  -0.000041049666994  -0.000070108706772  -0.000017819630680 1
force C   0.000100042175450   0.000087990943766   0.000092108306783 1
force C  -0.000044876333321   0.000010978706839  -0.000080780136907 1
force C  -0.000011155133690  -0.000008794262681   0.000107603053971 1
force C  -0.000064401712131   0.000079515169240  -0.000170493542310 1
force C  -0.000041387791951  -0.000092517167469   0.000076293888101 1
force C  -0.000059811129269  -0.000152427370288  -0.000002447452985 1
force C  -0.000058408988641  -0.000001515833926  -0.000069940301638 1
force C  -0.000002115858215  -0.000107968376345   0.000071851402339 1
force C  -0.000166670799641  -0.000077905066592  -0.000261634532387 1
force C  -0.000034063966776  -0.000053871369729  -0.000067034855442 1
force C   0.000091689163705  -0.000094939029641   0.000070770388993 1
force C  -0.000102025017377   0.000047347912217   0.000170555122737 1
force C  -0.000078029218178  -0.000044163140978   0.000055390543350 1
force C  -0.000012637931838  -0.000025637082624   0.000015158668966 1
force C   0.000011291875918  -0.000090285672708  -0.000032344792520 1
force C   0.000069988843663  -0.000096378012092   0.000111849715247 1
force C   0.000059360245549   0.000085341997085   0.000078703820672 1
force C   0.000160835363247   0.000148251784876  -0.000256427920310 1
force C  -0.000018110556387  -0.000019396395826  -0.000077969537446 1
force C   0.000092814895925  -0.000005379125310  -0.000005061039264 1
force C  -0.000059171194919  -0.000109275995311   0.000070014032585 1
force C  -0.000052135233760  -0.000012362705970   0.000029887331839 1
force C   0.000052583873985   0.000103614181324   0.000014629872272 1
force C  -0.000098282241303  -0.000028502166471   0.000129479017717 1
force C  -0.000191038566869   0.000681020242715  -0.000684535501624 1
force N  -0.000150778842918  -0.000142746855050  -0.000131305529671 1
force N   0.000080950449626   0.000213806525689  -0.000106016770976 1
force N  -0.000185706870568   0.000083388870490   0.000368598173204 1
force N   0.000023379014234  -0.000036631856709  -0.000270569394402 1
force Ti   0.000931671260353  -0.000247825768005   0.000147615702328 1
force O  -0.000013597489585   0.000233445877725   0.000326606395793 1
force O   0.000190644223762  -0.000191306659423   0.000450689389780 1
force O  -0.000181490122953   0.000359469935699   0.000000287360869 1
force H   0.000048766244505  -0.000166211753638   0.000158631479355 1
force H  -0.000459814633428   0.000278669782226  -0.000138420834679 1
force H  -0.000118684524934   0.000050818356002   0.000046297395855 1

# Energy components:
   A_diel =       -0.0242920891570284
   Eewald =     1702.3860769249054101
       EH =     2033.6454160269788645
     Eloc =    -4292.1222936989388472
      Enl =       54.7897763917538327
     EvdW =       -0.0768358794501464
      Exc =     -113.5994435262886100
 Exc_core =        3.3745783279618169
       KE =      206.2163650627936704
  MuShift =       -0.0011507062725686
-------------------------------------
     Etot =     -405.4118031657133088
       TS =        0.0005530799708914
-------------------------------------
        F =     -405.4123562456841796
      muN =      -29.6504054690383292
-------------------------------------
        G =     -375.7619507766458469


Dumping 'jdft.fillings' ... done
Dumping 'jdft.wfns' ... done
Dumping 'jdft.fluidState' ... done
Dumping 'jdft.ionpos' ... done
Dumping 'jdft.lattice' ... done
Dumping 'jdft.eigenvals' ... done
Dumping 'jdft.eigStats' ... 
	eMin: -2.256785 at state 0 ( [ +0.000000 +0.000000 +0.000000 ] spin 1 )
	HOMO: -0.127715 at state 2 ( [ +0.000000 -0.333333 +0.000000 ] spin 1 )
	mu  : -0.127200
	LUMO: -0.125671 at state 4 ( [ +0.333333 +0.333333 +0.000000 ] spin 1 )
	eMax: +0.022769 at state 9 ( [ +0.000000 +0.000000 +0.000000 ] spin -1 )
	HOMO-LUMO gap: +0.002044
	Optical gap  : +0.003834 at state 2 ( [ +0.000000 -0.333333 +0.000000 ] spin 1 )
Dumping 'jdft.Ecomponents' ... done
IonicMinimize: Iter:   1  G: -375.761950776645847  |grad|_K:  1.595e-04  alpha:  1.000e+00  linmin: -7.374e-01  t[s]:   4760.80

#--- Lowdin population analysis ---
# oxidation-state C +0.035 +0.042 +0.035 +0.042 +0.034 +0.038 +0.161 +0.129 +0.026 +0.034 +0.035 +0.167 +0.024 +0.037 +0.044 +0.122 -0.007 +0.038 +0.030 +0.036 +0.025 +0.018 +0.022 +0.025 +0.034 +0.030 +0.038 -0.009 +0.132 +0.046 +0.037 +0.017 +0.171 +0.035 +0.034 +0.025 +0.116 +0.165 +0.038 +0.034 +0.043 +0.037 +0.042 +0.036 +0.182
# magnetic-moments C +0.001 +0.008 +0.003 +0.002 +0.001 +0.003 +0.008 +0.007 +0.003 +0.002 +0.001 +0.003 -0.000 +0.003 -0.001 -0.001 -0.002 +0.003 +0.001 +0.000 +0.005 +0.010 -0.002 +0.002 +0.003 -0.000 +0.001 -0.003 +0.001 +0.002 +0.004 +0.010 +0.004 +0.000 +0.001 +0.006 +0.005 +0.005 +0.001 +0.001 +0.002 -0.001 +0.002 -0.000 +0.034
# oxidation-state N -0.307 -0.320 -0.320 -0.319
# magnetic-moments N -0.003 -0.005 -0.004 +0.001
# oxidation-state Ti +1.375
# magnetic-moments Ti +0.472
# oxidation-state O -0.410 -0.452 -0.682
# magnetic-moments O +0.010 +0.006 -0.000
# oxidation-state H +0.394 +0.478 +0.478
# magnetic-moments H -0.000 -0.000 -0.000


Computing DFT-D3 correction:
# coordination-number C 3.299 3.321 3.335 3.332 3.312 3.288 3.321 3.551 3.330 3.313 3.302 3.331 3.304 3.300 3.324 3.629 3.267 3.301 3.320 3.334 3.326 3.302 3.300 3.328 3.335 3.320 3.299 3.267 3.548 3.325 3.301 3.305 3.321 3.301 3.313 3.329 3.636 3.326 3.289 3.312 3.332 3.334 3.321 3.300 3.016
# coordination-number N 3.174 3.178 3.174 3.182
# coordination-number Ti 7.429
# coordination-number O 2.000 1.984 2.078
# coordination-number H 1.071 0.992 0.992
# diagonal-C6 C 24.29 24.07 23.92 23.96 24.17 24.39 24.07 20.90 23.97 24.15 24.26 23.97 24.24 24.28 24.04 19.95 24.58 24.28 24.09 23.93 24.02 24.26 24.28 24.00 23.92 24.09 24.29 24.57 20.95 24.03 24.27 24.23 24.08 24.27 24.16 23.99 19.87 24.02 24.39 24.16 23.95 23.94 24.07 24.28 25.64
# diagonal-C6 N 15.60 15.60 15.60 15.60
# diagonal-C6 Ti 321.59
# diagonal-C6 O 10.41 10.41 10.39
# diagonal-C6 H 3.06 3.09 3.09
EvdW_6 =   -0.043593
EvdW_8 =   -0.033243
Shifting auxilliary hamiltonian by 0.000102 to set nElectrons=233.100672

-------- Electronic minimization -----------
	Linear fluid (dielectric constant: 78.4, screening length: 8.12261 Bohr) occupying 0.707460 of unit cell:	Completed after 5 iterations at t[s]:   4827.31
	FillingsUpdate:  mu: -0.127200000  nElectrons: 233.100672  magneticMoment: [ Abs: 0.72796  Tot: +0.63943 ]
ElecMinimize: Iter:   0  G: -375.761946739567406  |grad|_K:  2.995e-07  alpha:  1.000e+00
	Linear fluid (dielectric constant: 78.4, screening length: 8.12261 Bohr) occupying 0.707390 of unit cell:	Completed after 12 iterations at t[s]:   4955.81
	Linear fluid (dielectric constant: 78.4, screening length: 8.12261 Bohr) occupying 0.707444 of unit cell:	Completed after 11 iterations at t[s]:   5004.66
	FillingsUpdate:  mu: -0.127200000  nElectrons: 233.097190  magneticMoment: [ Abs: 0.72454  Tot: +0.63589 ]
	SubspaceRotationAdjust: set factor to 0.0735
ElecMinimize: Iter:   1  G: -375.761951379744005  |grad|_K:  1.450e-07  alpha:  2.300e-01  linmin: -6.102e-04  t[s]:   5064.63
	Linear fluid (dielectric constant: 78.4, screening length: 8.12261 Bohr) occupying 0.707447 of unit cell:	Completed after 2 iterations at t[s]:   5117.75
	Linear fluid (dielectric constant: 78.4, screening length: 8.12261 Bohr) occupying 0.707452 of unit cell:	Completed after 2 iterations at t[s]:   5162.33
	FillingsUpdate:  mu: -0.127200000  nElectrons: 233.098981  magneticMoment: [ Abs: 0.72571  Tot: +0.63735 ]
	SubspaceRotationAdjust: set factor to 0.125
ElecMinimize: Iter:   2  G: -375.761954246159348  |grad|_K:  6.363e-08  alpha:  5.989e-01  linmin: -2.901e-03  t[s]:   5222.21
	Linear fluid (dielectric constant: 78.4, screening length: 8.12261 Bohr) occupying 0.707458 of unit cell:	Completed after 3 iterations at t[s]:   5276.49
	Linear fluid (dielectric constant: 78.4, screening length: 8.12261 Bohr) occupying 0.707460 of unit cell:	Completed after 0 iterations at t[s]:   5319.48
	FillingsUpdate:  mu: -0.127200000  nElectrons: 233.100697  magneticMoment: [ Abs: 0.72701  Tot: +0.63881 ]
	SubspaceRotationAdjust: set factor to 0.141
ElecMinimize: Iter:   3  G: -375.761954991497817  |grad|_K:  5.078e-08  alpha:  7.715e-01  linmin: -3.817e-03  t[s]:   5380.21
	Linear fluid (dielectric constant: 78.4, screening length: 8.12261 Bohr) occupying 0.707464 of unit cell:	Completed after 2 iterations at t[s]:   5433.11
	Linear fluid (dielectric constant: 78.4, screening length: 8.12261 Bohr) occupying 0.707464 of unit cell:	Completed after 0 iterations at t[s]:   5475.18
	FillingsUpdate:  mu: -0.127200000  nElectrons: 233.101950  magneticMoment: [ Abs: 0.72773  Tot: +0.63969 ]
	SubspaceRotationAdjust: set factor to 0.174
ElecMinimize: Iter:   4  G: -375.761955523788060  |grad|_K:  4.865e-08  alpha:  8.219e-01  linmin: -7.771e-04  t[s]:   5534.67
	Linear fluid (dielectric constant: 78.4, screening length: 8.12261 Bohr) occupying 0.707473 of unit cell:	Completed after 3 iterations at t[s]:   5588.17
	Linear fluid (dielectric constant: 78.4, screening length: 8.12261 Bohr) occupying 0.707470 of unit cell:	Completed after 1 iterations at t[s]:   5632.13
	FillingsUpdate:  mu: -0.127200000  nElectrons: 233.103805  magneticMoment: [ Abs: 0.72911  Tot: +0.64121 ]
	SubspaceRotationAdjust: set factor to 0.163
ElecMinimize: Iter:   5  G: -375.761955779340440  |grad|_K:  5.650e-08  alpha:  5.331e-01  linmin: -4.415e-06  t[s]:   5692.49
	Linear fluid (dielectric constant: 78.4, screening length: 8.12261 Bohr) occupying 0.707468 of unit cell:	Completed after 3 iterations at t[s]:   5746.25
	Linear fluid (dielectric constant: 78.4, screening length: 8.12261 Bohr) occupying 0.707469 of unit cell:	Completed after 2 iterations at t[s]:   5790.64
	FillingsUpdate:  mu: -0.127200000  nElectrons: 233.104295  magneticMoment: [ Abs: 0.72931  Tot: +0.64147 ]
	SubspaceRotationAdjust: set factor to 0.121
ElecMinimize: Iter:   6  G: -375.761955949437208  |grad|_K:  4.158e-08  alpha:  2.758e-01  linmin:  6.317e-05  t[s]:   5851.35
	Linear fluid (dielectric constant: 78.4, screening length: 8.12261 Bohr) occupying 0.707470 of unit cell:	Completed after 0 iterations at t[s]:   5902.30
ElecMinimize: 	Predicted alpha/alphaT>3.000000, increasing alphaT to 8.275155e-01.
	Linear fluid (dielectric constant: 78.4, screening length: 8.12261 Bohr) occupying 0.707471 of unit cell:	Completed after 2 iterations at t[s]:   5946.95
	Linear fluid (dielectric constant: 78.4, screening length: 8.12261 Bohr) occupying 0.707471 of unit cell:	Completed after 0 iterations at t[s]:   5989.63
	FillingsUpdate:  mu: -0.127200000  nElectrons: 233.106178  magneticMoment: [ Abs: 0.73084  Tot: +0.64308 ]
	SubspaceRotationAdjust: set factor to 0.105
ElecMinimize: Iter:   7  G: -375.761956190341152  |grad|_K:  3.113e-08  alpha:  6.322e-01  linmin:  5.886e-04  t[s]:   6048.67
	Linear fluid (dielectric constant: 78.4, screening length: 8.12261 Bohr) occupying 0.707468 of unit cell:	Completed after 0 iterations at t[s]:   6098.80
	Linear fluid (dielectric constant: 78.4, screening length: 8.12261 Bohr) occupying 0.707467 of unit cell:	Completed after 1 iterations at t[s]:   6142.09
	FillingsUpdate:  mu: -0.127200000  nElectrons: 233.106731  magneticMoment: [ Abs: 0.73132  Tot: +0.64354 ]
	SubspaceRotationAdjust: set factor to 0.101
ElecMinimize: Iter:   8  G: -375.761956296253345  |grad|_K:  2.313e-08  alpha:  7.665e-01  linmin:  9.745e-04  t[s]:   6202.54
	Linear fluid (dielectric constant: 78.4, screening length: 8.12261 Bohr) occupying 0.707466 of unit cell:	Completed after 0 iterations at t[s]:   6253.98
	Linear fluid (dielectric constant: 78.4, screening length: 8.12261 Bohr) occupying 0.707466 of unit cell:	Completed after 0 iterations at t[s]:   6297.36
	FillingsUpdate:  mu: -0.127200000  nElectrons: 233.107128  magneticMoment: [ Abs: 0.73177  Tot: +0.64395 ]
	SubspaceRotationAdjust: set factor to 0.132
ElecMinimize: Iter:   9  G: -375.761956362082856  |grad|_K:  1.670e-08  alpha:  6.454e-01  linmin:  3.204e-06  t[s]:   6358.59
	Linear fluid (dielectric constant: 78.4, screening length: 8.12261 Bohr) occupying 0.707468 of unit cell:	Completed after 3 iterations at t[s]:   6412.28
	Linear fluid (dielectric constant: 78.4, screening length: 8.12261 Bohr) occupying 0.707467 of unit cell:	Completed after 0 iterations at t[s]:   6455.27
ElecMinimize: 	Step increased G by 3.805667e-10, reducing alpha to 1.929250e-02.
	Linear fluid (dielectric constant: 78.4, screening length: 8.12261 Bohr) occupying 0.707466 of unit cell:	Completed after 0 iterations at t[s]:   6554.10
	FillingsUpdate:  mu: -0.127200000  nElectrons: 233.107141  magneticMoment: [ Abs: 0.73179  Tot: +0.64397 ]
	SubspaceRotationAdjust: set factor to 0.099
ElecMinimize: Iter:  10  G: -375.761956376575256  |grad|_K:  4.462e-08  alpha:  1.929e-02  linmin:  3.085e-03  t[s]:   6614.64
ElecMinimize: Converged (|Delta G|<1.000000e-07 for 2 iters).
Setting wave functions to eigenvectors of Hamiltonian
Converging empty states (this may take a while): |deigs|: 1.396e-08

Computing DFT-D3 correction:
# coordination-number C 3.299 3.321 3.335 3.332 3.312 3.288 3.321 3.551 3.330 3.313 3.302 3.331 3.304 3.300 3.324 3.629 3.267 3.301 3.320 3.334 3.326 3.302 3.300 3.328 3.335 3.320 3.299 3.267 3.548 3.325 3.301 3.305 3.321 3.301 3.313 3.329 3.636 3.326 3.289 3.312 3.332 3.334 3.321 3.300 3.016
# coordination-number N 3.174 3.178 3.174 3.182
# coordination-number Ti 7.429
# coordination-number O 2.000 1.984 2.078
# coordination-number H 1.071 0.992 0.992
# diagonal-C6 C 24.29 24.07 23.92 23.96 24.17 24.39 24.07 20.90 23.97 24.15 24.26 23.97 24.24 24.28 24.04 19.95 24.58 24.28 24.09 23.93 24.02 24.26 24.28 24.00 23.92 24.09 24.29 24.57 20.95 24.03 24.27 24.23 24.08 24.27 24.16 23.99 19.87 24.02 24.39 24.16 23.95 23.94 24.07 24.28 25.64
# diagonal-C6 N 15.60 15.60 15.60 15.60
# diagonal-C6 Ti 321.59
# diagonal-C6 O 10.41 10.41 10.39
# diagonal-C6 H 3.06 3.09 3.09
EvdW_6 =   -0.043593
EvdW_8 =   -0.033243

# Ionic positions in cartesian coordinates:
ion C   0.056047234422662   0.036102108748150  43.349520153287635 1
ion C  21.102345472457777   3.993709050514042  43.327824857265327 1
ion C  18.756786561710676   7.998122021796600  43.212775628788158 1
ion C  -6.989682615038600  11.998450101416315  43.211813443300471 1
ion C  -9.318333367878978  16.007646450490459  43.305095697164006 1
ion C   4.739204669745170   0.137719880097132   0.108826921818443 1
ion C   2.348985473637999   4.160905406960305   0.228082287707253 1
ion C  -0.068214740810606   7.981724206663225   0.181528654732757 1
ion C  -2.374276350526826  11.985612727059138  43.307726560560823 1
ion C  -4.667171928018713  16.013176760793094  43.304299811191790 1
ion C   9.433102842839451   0.027657006036003  43.299352298744523 1
ion C   7.148042285001530   4.136385381087774   0.105585583048657 1
ion C   0.027803122001918  15.914084001324252   0.126477205818142 1
ion C   2.403459220758286  19.878266799636648  43.329561361541380 1
ion C  11.818065951040992   3.979590363166836  43.227038636555562 1
ion C   9.528936760646934   7.968592681556785   0.032438684633504 1
ion C   4.725783012941484  15.779426703252813   0.231252209038441 1
ion C   7.053251300635003  19.885433884763209  43.348741950902685 1
ion C  16.459684414541250   3.966602313756143  43.240172840178317 1
ion C  14.152820838069514   7.989407681013343  43.176596011919600 1
ion C  11.830464079818729  11.990822502601880  43.272267849093524 1
ion C   9.425414802638944  15.929047062008861   0.100016999172346 1
ion C   0.044230335065076   2.719948249820741   0.122219959428245 1
ion C  -2.365086833782717   6.650805330276373  43.300253190510674 1
[...]
ElecMinimize: Iter:   0  G: -375.761978495167682  |grad|_K:  2.537e-07  alpha:  1.000e+00
	Linear fluid (dielectric constant: 78.4, screening length: 8.12261 Bohr) occupying 0.707350 of unit cell:	Completed after 12 iterations at t[s]:  14276.12
	Linear fluid (dielectric constant: 78.4, screening length: 8.12261 Bohr) occupying 0.707435 of unit cell:	Completed after 13 iterations at t[s]:  14329.97
	FillingsUpdate:  mu: -0.127200000  nElectrons: 233.107861  magneticMoment: [ Abs: 0.73545  Tot: +0.64691 ]
	SubspaceRotationAdjust: set factor to 0.141
ElecMinimize: Iter:   1  G: -375.761980430198491  |grad|_K:  1.133e-07  alpha:  1.282e-01  linmin: -1.709e-03  t[s]:  14391.81
	Linear fluid (dielectric constant: 78.4, screening length: 8.12261 Bohr) occupying 0.707436 of unit cell:	Completed after 0 iterations at t[s]:  14443.82
ElecMinimize: 	Predicted alpha/alphaT>3.000000, increasing alphaT to 3.846861e-01.
	Linear fluid (dielectric constant: 78.4, screening length: 8.12261 Bohr) occupying 0.707437 of unit cell:	Completed after 2 iterations at t[s]:  14489.36
	Linear fluid (dielectric constant: 78.4, screening length: 8.12261 Bohr) occupying 0.707438 of unit cell:	Completed after 2 iterations at t[s]:  14535.20
	FillingsUpdate:  mu: -0.127200000  nElectrons: 233.108590  magneticMoment: [ Abs: 0.73575  Tot: +0.64743 ]
	SubspaceRotationAdjust: set factor to 0.18
ElecMinimize: Iter:   2  G: -375.761982093818631  |grad|_K:  4.710e-08  alpha:  5.720e-01  linmin: -9.960e-04  t[s]:  14597.33
	Linear fluid (dielectric constant: 78.4, screening length: 8.12261 Bohr) occupying 0.707446 of unit cell:	Completed after 3 iterations at t[s]:  14652.66
	Linear fluid (dielectric constant: 78.4, screening length: 8.12261 Bohr) occupying 0.707444 of unit cell:	Completed after 0 iterations at t[s]:  14695.78
	FillingsUpdate:  mu: -0.127200000  nElectrons: 233.109719  magneticMoment: [ Abs: 0.73668  Tot: +0.64848 ]
	SubspaceRotationAdjust: set factor to 0.117
ElecMinimize: Iter:   3  G: -375.761982316170133  |grad|_K:  7.167e-08  alpha:  4.047e-01  linmin:  5.455e-03  t[s]:  14757.61
	Linear fluid (dielectric constant: 78.4, screening length: 8.12261 Bohr) occupying 0.707446 of unit cell:	Completed after 1 iterations at t[s]:  14812.14
	Linear fluid (dielectric constant: 78.4, screening length: 8.12261 Bohr) occupying 0.707445 of unit cell:	Completed after 1 iterations at t[s]:  14856.90
	FillingsUpdate:  mu: -0.127200000  nElectrons: 233.109913  magneticMoment: [ Abs: 0.73671  Tot: +0.64858 ]
	SubspaceRotationAdjust: set factor to 0.175
ElecMinimize: Iter:   4  G: -375.761982414774081  |grad|_K:  3.207e-08  alpha:  1.762e-01  linmin:  7.989e-04  t[s]:  14918.69
	Linear fluid (dielectric constant: 78.4, screening length: 8.12261 Bohr) occupying 0.707444 of unit cell:	Completed after 0 iterations at t[s]:  14970.98
ElecMinimize: 	Predicted alpha/alphaT>3.000000, increasing alphaT to 5.284522e-01.
	Linear fluid (dielectric constant: 78.4, screening length: 8.12261 Bohr) occupying 0.707444 of unit cell:	Completed after 1 iterations at t[s]:  15015.87
	Linear fluid (dielectric constant: 78.4, screening length: 8.12261 Bohr) occupying 0.707444 of unit cell:	Completed after 0 iterations at t[s]:  15059.81
	FillingsUpdate:  mu: -0.127200000  nElectrons: 233.109942  magneticMoment: [ Abs: 0.73663  Tot: +0.64854 ]
	SubspaceRotationAdjust: set factor to 0.23
ElecMinimize: Iter:   5  G: -375.761982541774842  |grad|_K:  1.647e-08  alpha:  5.840e-01  linmin: -3.634e-03  t[s]:  15121.53
	Linear fluid (dielectric constant: 78.4, screening length: 8.12261 Bohr) occupying 0.707443 of unit cell:	Completed after 1 iterations at t[s]:  15175.13
	Linear fluid (dielectric constant: 78.4, screening length: 8.12261 Bohr) occupying 0.707443 of unit cell:	Completed after 0 iterations at t[s]:  15218.42
	FillingsUpdate:  mu: -0.127200000  nElectrons: 233.109928  magneticMoment: [ Abs: 0.73659  Tot: +0.64850 ]
	SubspaceRotationAdjust: set factor to 0.217
ElecMinimize: Iter:   6  G: -375.761982570198484  |grad|_K:  1.488e-08  alpha:  4.871e-01  linmin: -4.195e-03  t[s]:  15278.59
	Linear fluid (dielectric constant: 78.4, screening length: 8.12261 Bohr) occupying 0.707444 of unit cell:	Completed after 0 iterations at t[s]:  15331.00
	Linear fluid (dielectric constant: 78.4, screening length: 8.12261 Bohr) occupying 0.707444 of unit cell:	Completed after 0 iterations at t[s]:  15374.25
	FillingsUpdate:  mu: -0.127200000  nElectrons: 233.110576  magneticMoment: [ Abs: 0.73712  Tot: +0.64909 ]
	SubspaceRotationAdjust: set factor to 0.275
ElecMinimize: Iter:   7  G: -375.761982629722922  |grad|_K:  1.892e-08  alpha:  8.864e-01  linmin:  1.776e-05  t[s]:  15435.66
ElecMinimize: Converged (|Delta G|<1.000000e-07 for 2 iters).
Setting wave functions to eigenvectors of Hamiltonian
Converging empty states (this may take a while): |deigs|: 3.347e-09

Computing DFT-D3 correction:
# coordination-number C 3.299 3.322 3.336 3.332 3.312 3.288 3.321 3.547 3.330 3.313 3.302 3.331 3.304 3.300 3.324 3.634 3.267 3.301 3.320 3.334 3.326 3.302 3.301 3.328 3.335 3.320 3.300 3.267 3.544 3.325 3.301 3.305 3.320 3.301 3.313 3.329 3.641 3.326 3.289 3.312 3.332 3.334 3.321 3.300 3.016
# coordination-number N 3.173 3.178 3.173 3.182
# coordination-number Ti 7.429
# coordination-number O 2.002 1.984 2.074
# coordination-number H 1.068 0.992 0.992
# diagonal-C6 C 24.29 24.06 23.91 23.95 24.17 24.39 24.08 20.96 23.97 24.15 24.26 23.96 24.25 24.28 24.04 19.90 24.58 24.27 24.08 23.93 24.02 24.26 24.28 24.00 23.92 24.08 24.29 24.58 21.01 24.03 24.27 24.23 24.08 24.27 24.16 23.99 19.82 24.02 24.39 24.16 23.95 23.93 24.07 24.28 25.64
# diagonal-C6 N 15.60 15.60 15.60 15.60
# diagonal-C6 Ti 321.59
# diagonal-C6 O 10.41 10.41 10.39
# diagonal-C6 H 3.07 3.09 3.09
EvdW_6 =   -0.043592
EvdW_8 =   -0.033237

# Ionic positions in cartesian coordinates:
ion C   0.056444148250238   0.036486255306618  43.351333221188902 1
ion C  21.102093040853365   3.993467869657949  43.327745290379859 1
ion C  18.755739296137474   7.997025777824949  43.212494647087226 1
ion C  -6.989938219210943  11.997408170399801  43.213410406162090 1
ion C  -9.317665121093926  16.007481314755104  43.304155617975674 1
ion C   4.739283400073434   0.137165313784330   0.109362215909484 1
ion C   2.348859012877167   4.161515750909156   0.232750783017800 1
ion C  -0.068911640739400   7.981141587706764   0.178263329448895 1
ion C  -2.374751295741309  11.984442225031206  43.304172311273874 1
ion C  -4.667283273614092  16.011907776003476  43.304010973220386 1
ion C   9.433194187389002   0.026072320671295  43.302586044685064 1
ion C   7.148378996342225   4.134724144367715   0.104981672808412 1
ion C   0.027871196284352  15.912167146379597   0.126661697503776 1
ion C   2.403322726608456  19.877162301222985  43.327963958865993 1
ion C  11.818159868659691   3.978392011330771  43.228864963077299 1
ion C   9.530219340041519   7.968306261228005   0.033727644237265 1
ion C   4.725685208669550  15.778702598716571   0.228605605417557 1
ion C   7.053076736011905  19.885288584719412  43.349708213807453 1
ion C  16.459572951190076   3.965449108779364  43.239644261897993 1
ion C  14.152842029779581   7.988382371727226  43.178286201379962 1
ion C  11.831548597226915  11.990873811913335  43.274440837834334 1
ion C   9.426542284732543  15.930250523201334   0.098162779674724 1
ion C   0.044252221421273   2.720311638434987   0.124498291596727 1
ion C  -2.365737458192860   6.650051148775301  43.296318969199476 1
ion C  -4.685053906851406  10.648139456630096  43.220215253808192 1
ion C  -6.991866672490687  14.671374012414340  43.270824261829723 1
ion C  -9.316528434519666  18.696772905562234  43.347452551532477 1
ion C   4.740983153762048   2.858508434976091   0.176818896288918 1
ion C  -0.067285285104591  10.664735844870505   0.175183909768958 1
ion C  -2.347886607612727  14.654831825086468  43.332182261494310 1
ion C  -4.665748706556656  18.696804721808498  43.326273645591556 1
ion C   9.448025984158857   2.704890822389296   0.015932446773144 1
ion C   2.328878806239331  14.472710049965524   0.253202667804681 1
ion C   0.042805890226228  18.592627972562354  43.330315708223551 1
ion C  14.138348554147031   2.622342445630606  43.254072551712930 1
ion C  11.845371846008023   6.649616454532387  43.206389126443213 1
ion C   9.522727852429380  10.658994918587428   0.092195260666180 1
ion C   7.123825190836964  14.501553679208865   0.198320717789050 1
ion C   4.727120904036605  18.499384246802421   0.131916300626591 1
ion C  18.786994845240837   2.630838153186989  43.299333438482400 1
ion C  16.456576612645787   6.640371275443713  43.189023019220166 1
ion C  14.145724086048444  10.660514414499815  43.200833360476231 1
ion C  11.802081816008995  14.663281738465596  43.312135099662498 1
ion C   9.416114431842496  18.613307298836624  43.349126937169956 1
ion C   4.317576870087475   9.815611009682840   5.585390277631788 1
ion N   2.214800593290954  11.884731293044915   0.376762752536336 1
ion N   7.237101407720021  11.904647898696744   0.294621330611778 1
ion N   2.221760455524228   6.762565761227775   0.391679979338264 1
ion N   7.259977211175987   6.714746866024266   0.162467397719102 1
ion Ti   4.841610150112267   9.294557749670583   1.775485757614343 1
ion O   3.571104101791406  10.438952940461729   7.850427481753428 1
ion O   6.084529632381150   8.178328580844212   5.291169664392607 1
ion O   0.139575700488082  13.719529532549746   7.173178274145922 1
ion H   2.127398046834103  11.788405998368928   7.646825292102345 1
ion H   0.589105008346582  15.356104721721996   7.939116268634757 1
ion H  -1.499140772203750  13.259526963399511   7.927673170505128 1

# Forces in Cartesian coordinates:
force C   0.000017644142781  -0.000025313905472   0.000023984029964 1
force C   0.000017313252029  -0.000031134179266   0.000017584941002 1
force C   0.000081137227415   0.000029249949854  -0.000111150902686 1
force C   0.000042433532105   0.000011026435887   0.000003631551558 1
force C  -0.000021064385619  -0.000021238139998   0.000020363145264 1
force C  -0.000009394783765  -0.000029231228647   0.000069236349306 1
force C   0.000090588167822   0.000005085558135   0.000056987757459 1
force C   0.000135188510956   0.000009837655385   0.000042758523867 1
force C  -0.000000300474707   0.000018402930724  -0.000059453854905 1
force C  -0.000010507296993  -0.000022778956868   0.000026178550690 1
force C  -0.000026738294377  -0.000033598372276   0.000016296304726 1
force C  -0.000002868967900  -0.000000603568081   0.000069324119724 1
force C  -0.000017275808201  -0.000086432677174  -0.000028747168308 1
force C  -0.000028398558644  -0.000104021762885   0.000036408895535 1
force C  -0.000036437228369  -0.000049776338609   0.000048910555498 1
force C  -0.000125199165754   0.000005493378888   0.000018060423745 1
force C   0.000046587598271  -0.000065590388912  -0.000062497450021 1
force C   0.000022525158950  -0.000070113370952  -0.000024541776777 1
force C  -0.000067156291879  -0.000035539444493   0.000015648536881 1
force C  -0.000018391500904   0.000028692348237   0.000149657473643 1
force C  -0.000006298316169   0.000029328668023   0.000051685120517 1
force C  -0.000015869179876  -0.000081738221734  -0.000010759689714 1
force C  -0.000010162345506   0.000049625029466   0.000112144326479 1
force C  -0.000016396101308  -0.000048170885374   0.000040341913667 1
force C   0.000116267839522  -0.000055859098646  -0.000113141611848 1
force C  -0.000027662274781   0.000001010088499   0.000007486504955 1
force C  -0.000025264789407   0.000054747975004   0.000069211389277 1
force C   0.000035379044959   0.000006556984630   0.000095607630715 1
force C   0.000095233815110  -0.000114303769603   0.000011948532959 1
force C   0.000068973958736  -0.000033945031167  -0.000013221992030 1
force C   0.000071306652725   0.000022557711415   0.000030893854889 1
force C  -0.000023994095755   0.000038844841634   0.000008245102244 1
force C   0.000095157448264  -0.000014588174053  -0.000091295126965 1
force C   0.000059101426195  -0.000029790950228   0.000048045269104 1
force C  -0.000034060811082   0.000001294584457   0.000056519694786 1
force C  -0.000001547240720  -0.000059059224922   0.000049917507315 1
force C  -0.000089903300026  -0.000102518987092  -0.000078181673314 1
force C   0.000024584764207  -0.000049866549782  -0.000051169030636 1
force C  -0.000016074982217   0.000027754585301  -0.000023098658840 1
force C   0.000016960194343   0.000002579364848  -0.000014311079894 1
force C   0.000028166706096  -0.000028535098379   0.000000999119653 1
force C  -0.000035145993191  -0.000024466652712   0.000133784847677 1
force C  -0.000052588923612   0.000000654998149  -0.000006317024211 1
force C  -0.000055892964146  -0.000056335709052  -0.000059674775094 1
force C  -0.000097076556783   0.000171317083054  -0.000412668247193 1
force N  -0.000177151630169   0.000098984863330  -0.000141191102824 1
force N   0.000028405759840   0.000034176361898  -0.000072445853788 1
force N  -0.000139990733878  -0.000051278295667  -0.000010047980327 1
force N   0.000020773396230   0.000011873090216   0.000038618461623 1
force Ti  -0.000230929452824  -0.000160652802787   0.000316735551149 1
force O   0.000093515750062   0.000043001655878   0.000320153353535 1
force O   0.000240624695380  -0.000080099379835   0.000009413547910 1
force O  -0.000157470969666   0.000210235135113   0.000084427840182 1
force H  -0.000042275493870   0.000349503141693  -0.000157256872719 1
force H  -0.000395214337789   0.000265336497872  -0.000104350746564 1
force H  -0.000202447078523   0.000110609597504   0.000036951590818 1

# Energy components:
   A_diel =       -0.0247803293946121
   Eewald =     1702.3115027332671616
       EH =     2033.7014327343456443
     Eloc =    -4292.1061053267912939
      Enl =       54.7904951181097317
     EvdW =       -0.0768284942459186
      Exc =     -113.6029139614058607
 Exc_core =        3.3745828483585405
       KE =      206.2207581803218659
  MuShift =       -0.0012639103224382
-------------------------------------
     Etot =     -405.4131204077572761
       TS =        0.0005274659701733
-------------------------------------
        F =     -405.4136478737274274
      muN =      -29.6516652440045192
-------------------------------------
        G =     -375.7619826297229224


Dumping 'jdft.fillings' ... done
Dumping 'jdft.wfns' ... done
Dumping 'jdft.fluidState' ... done
Dumping 'jdft.ionpos' ... done
Dumping 'jdft.lattice' ... done
Dumping 'jdft.eigenvals' ... done
Dumping 'jdft.eigStats' ... 
	eMin: -2.256469 at state 0 ( [ +0.000000 +0.000000 +0.000000 ] spin 1 )
	HOMO: -0.127706 at state 2 ( [ +0.000000 -0.333333 +0.000000 ] spin 1 )
	mu  : -0.127200
	LUMO: -0.125546 at state 4 ( [ +0.333333 +0.333333 +0.000000 ] spin 1 )
	eMax: +0.022747 at state 9 ( [ +0.000000 +0.000000 +0.000000 ] spin -1 )
	HOMO-LUMO gap: +0.002160
	Optical gap  : +0.003935 at state 2 ( [ +0.000000 -0.333333 +0.000000 ] spin 1 )
Dumping 'jdft.Ecomponents' ... done
IonicMinimize: Iter:   7  G: -375.761982629722922  |grad|_K:  9.585e-05  alpha:  1.000e+00  linmin: -3.046e-01  t[s]:  15587.75
IonicMinimize: Converged (|grad|_K<1.000000e-04).

#--- Lowdin population analysis ---
# oxidation-state C +0.035 +0.042 +0.035 +0.042 +0.034 +0.037 +0.161 +0.129 +0.026 +0.033 +0.035 +0.167 +0.024 +0.037 +0.043 +0.121 -0.008 +0.038 +0.030 +0.036 +0.025 +0.018 +0.022 +0.024 +0.034 +0.030 +0.038 -0.010 +0.133 +0.046 +0.037 +0.017 +0.171 +0.035 +0.034 +0.025 +0.116 +0.165 +0.038 +0.033 +0.042 +0.036 +0.042 +0.036 +0.181
# magnetic-moments C +0.001 +0.008 +0.004 +0.002 +0.001 +0.003 +0.008 +0.007 +0.003 +0.002 +0.001 +0.004 -0.000 +0.004 -0.001 -0.001 -0.002 +0.003 +0.001 +0.000 +0.005 +0.010 -0.002 +0.002 +0.004 -0.000 +0.002 -0.003 +0.002 +0.003 +0.004 +0.011 +0.005 +0.000 +0.001 +0.006 +0.005 +0.006 +0.001 +0.001 +0.002 -0.001 +0.002 -0.000 +0.035
# oxidation-state N -0.307 -0.320 -0.321 -0.320
# magnetic-moments N -0.002 -0.004 -0.004 +0.001
# oxidation-state Ti +1.377
# magnetic-moments Ti +0.473
# oxidation-state O -0.410 -0.453 -0.683
# magnetic-moments O +0.010 +0.006 -0.000
# oxidation-state H +0.395 +0.477 +0.478
# magnetic-moments H -0.000 -0.000 -0.000


Dumping 'jdft.n_up' ... done
Dumping 'jdft.n_dn' ... done
Dumping 'jdft.tau_up' ... done
Dumping 'jdft.tau_dn' ... done
Dumping 'jdft.eigenvals' ... done
Dumping 'jdft.eigStats' ... 
	eMin: -2.256469 at state 0 ( [ +0.000000 +0.000000 +0.000000 ] spin 1 )
	HOMO: -0.127706 at state 2 ( [ +0.000000 -0.333333 +0.000000 ] spin 1 )
	mu  : -0.127200
	LUMO: -0.125546 at state 4 ( [ +0.333333 +0.333333 +0.000000 ] spin 1 )
	eMax: +0.022747 at state 9 ( [ +0.000000 +0.000000 +0.000000 ] spin -1 )
	HOMO-LUMO gap: +0.002160
	Optical gap  : +0.003935 at state 2 ( [ +0.000000 -0.333333 +0.000000 ] spin 1 )
Dumping 'jdft.kPts' ... done
Dumping 'jdft.dosUp' ... done.
Dumping 'jdft.dosDn' ... done.
End date and time: Tue Jul 19 09:35:51 2022  (Duration: 0-4:21:24.93)
Done!

PROFILER:             augmentDensityGrid     0.764900 +/-     0.939241 s,  875 calls,    669.287525 s total
PROFILER:         augmentDensityGridGrad     0.534035 +/-     0.695986 s,  480 calls,    256.336646 s total
PROFILER:        augmentDensitySpherical     0.000514 +/-     0.000727 s,  875 calls,      0.449494 s total
PROFILER:    augmentDensitySphericalGrad     0.000650 +/-     0.001910 s,  575 calls,      0.373626 s total
PROFILER:                 augmentOverlap     1.679825 +/-     2.399942 s, 1895 calls,   3183.268314 s total
PROFILER:                     diagouterI    16.703622 +/-     0.448117 s,  178 calls,   2973.244797 s total
PROFILER:              EdensityAndVscloc    10.347948 +/-     2.761353 s,  175 calls,   1810.890976 s total
PROFILER:                     EnlAndGrad     0.001753 +/-     0.003015 s, 1010 calls,      1.770040 s total
PROFILER:            ExCorrCommunication     0.146988 +/-     0.198979 s, 1140 calls,    167.566110 s total
PROFILER:               ExCorrFunctional     0.022237 +/-     0.004519 s,  200 calls,      4.447460 s total
PROFILER:                    ExCorrTotal     1.115951 +/-     0.417015 s,  200 calls,    223.190145 s total
PROFILER:                   Idag_DiagV_I    33.554014 +/-     4.810082 s,  107 calls,   3590.279491 s total
PROFILER:                    initWeights     1.892151 +/-     0.000000 s,    1 calls,      1.892151 s total
PROFILER:                    inv(matrix)     0.003550 +/-     0.005973 s,  173 calls,      0.614162 s total
PROFILER:            matrix::diagonalize     0.008852 +/-     0.006405 s,  282 calls,      2.496131 s total
PROFILER:                    matrix::set     0.000002 +/-     0.000007 s, 17922 calls,      0.041602 s total
PROFILER:            orthoMatrix(matrix)     0.002197 +/-     0.001353 s,  185 calls,      0.406362 s total
PROFILER:     RadialFunctionR::transform     0.015201 +/-     0.142137 s,  146 calls,      2.219356 s total
PROFILER:                    reduceKmesh     0.000000 +/-     0.000000 s,    1 calls,      0.000000 s total
PROFILER:   VanDerWaalsD3::energyAndGrad     0.036584 +/-     0.001354 s,   17 calls,      0.621923 s total
PROFILER:               WavefunctionDrag    33.780331 +/-     5.007408 s,    8 calls,    270.242649 s total
PROFILER:                            Y*M     0.766240 +/-     0.915734 s, 3178 calls,   2435.110378 s total
PROFILER:                          Y1^Y2     0.810265 +/-     0.950989 s, 2438 calls,   1975.425097 s total

MEMUSAGE:                   ColumnBundle     1.365987 GB
MEMUSAGE:        complexScalarFieldTilde     0.074158 GB
MEMUSAGE:                    IndexArrays     0.023178 GB
MEMUSAGE:                         matrix     0.020854 GB
MEMUSAGE:                           misc     0.051230 GB
MEMUSAGE:                    ScalarField     0.358429 GB
MEMUSAGE:               ScalarFieldTilde     0.262436 GB
MEMUSAGE:                          Total     1.646313 GB
