
*************** JDFTx 1.7.0 (git hash 5f12716a) ***************

Start date and time: Tue Nov 22 17:51:33 2022
Executable /home/nisi6161/jdftx_alpine/build/jdftx with command-line: -i in
Running on hosts (process indices):  c3cpu-c11-u5-3.rc.int.colorado.edu (0-17)
Divided in process groups (process indices):  0 (0)  1 (1)  2 (2)  3 (3)  4 (4)  5 (5)  6 (6)  7 (7)  8 (8)  9 (9)  10 (10)  11 (11)  12 (12)  13 (13)  14 (14)  15 (15)  16 (16)  17 (17)
Resource initialization completed at t[s]:      0.01
Run totals: 18 processes, 48 threads, 0 GPUs


Input parsed successfully to the following command list (including defaults):

basis kpoint-dependent
converge-empty-states yes
coords-type Cartesian
core-overlap-check none
coulomb-interaction Periodic
davidson-band-ratio 1.1
density-of-states Etol 1.000000e-06 Esigma 1.000000e-03 \
		Complete \
	Total \
	OrthoOrbital C 1   s \
	OrthoOrbital C 1   p \
	OrthoOrbital C 1   px \
	OrthoOrbital C 1   py \
	OrthoOrbital C 1   pz \
	OrthoOrbital C 2   s \
	OrthoOrbital C 2   p \
	OrthoOrbital C 2   px \
	OrthoOrbital C 2   py \
	OrthoOrbital C 2   pz \
	OrthoOrbital C 3   s \
	OrthoOrbital C 3   p \
	OrthoOrbital C 3   px \
	OrthoOrbital C 3   py \
	OrthoOrbital C 3   pz \
	OrthoOrbital C 4   s \
	OrthoOrbital C 4   p \
	OrthoOrbital C 4   px \
	OrthoOrbital C 4   py \
	OrthoOrbital C 4   pz \
	OrthoOrbital C 5   s \
	OrthoOrbital C 5   p \
	OrthoOrbital C 5   px \
	OrthoOrbital C 5   py \
	OrthoOrbital C 5   pz \
	OrthoOrbital C 6   s \
	OrthoOrbital C 6   p \
	OrthoOrbital C 6   px \
	OrthoOrbital C 6   py \
	OrthoOrbital C 6   pz \
	OrthoOrbital C 7   s \
	OrthoOrbital C 7   p \
	OrthoOrbital C 7   px \
	OrthoOrbital C 7   py \
	OrthoOrbital C 7   pz \
	OrthoOrbital C 8   s \
	OrthoOrbital C 8   p \
	OrthoOrbital C 8   px \
	OrthoOrbital C 8   py \
	OrthoOrbital C 8   pz \
	OrthoOrbital C 9   s \
	OrthoOrbital C 9   p \
	OrthoOrbital C 9   px \
	OrthoOrbital C 9   py \
	OrthoOrbital C 9   pz \
	OrthoOrbital C 10   s \
	OrthoOrbital C 10   p \
	OrthoOrbital C 10   px \
	OrthoOrbital C 10   py \
	OrthoOrbital C 10   pz \
	OrthoOrbital C 11   s \
	OrthoOrbital C 11   p \
	OrthoOrbital C 11   px \
	OrthoOrbital C 11   py \
	OrthoOrbital C 11   pz \
	OrthoOrbital C 12   s \
	OrthoOrbital C 12   p \
	OrthoOrbital C 12   px \
	OrthoOrbital C 12   py \
	OrthoOrbital C 12   pz \
	OrthoOrbital C 13   s \
	OrthoOrbital C 13   p \
	OrthoOrbital C 13   px \
	OrthoOrbital C 13   py \
	OrthoOrbital C 13   pz \
	OrthoOrbital C 14   s \
	OrthoOrbital C 14   p \
	OrthoOrbital C 14   px \
	OrthoOrbital C 14   py \
	OrthoOrbital C 14   pz \
	OrthoOrbital C 15   s \
	OrthoOrbital C 15   p \
	OrthoOrbital C 15   px \
	OrthoOrbital C 15   py \
	OrthoOrbital C 15   pz \
	OrthoOrbital C 16   s \
	OrthoOrbital C 16   p \
	OrthoOrbital C 16   px \
	OrthoOrbital C 16   py \
	OrthoOrbital C 16   pz \
	OrthoOrbital C 17   s \
	OrthoOrbital C 17   p \
	OrthoOrbital C 17   px \
	OrthoOrbital C 17   py \
	OrthoOrbital C 17   pz \
	OrthoOrbital C 18   s \
	OrthoOrbital C 18   p \
	OrthoOrbital C 18   px \
	OrthoOrbital C 18   py \
	OrthoOrbital C 18   pz \
	OrthoOrbital C 19   s \
	OrthoOrbital C 19   p \
	OrthoOrbital C 19   px \
	OrthoOrbital C 19   py \
	OrthoOrbital C 19   pz \
	OrthoOrbital C 20   s \
	OrthoOrbital C 20   p \
	OrthoOrbital C 20   px \
	OrthoOrbital C 20   py \
	OrthoOrbital C 20   pz \
	OrthoOrbital C 21   s \
	OrthoOrbital C 21   p \
	OrthoOrbital C 21   px \
	OrthoOrbital C 21   py \
	OrthoOrbital C 21   pz \
	OrthoOrbital C 22   s \
	OrthoOrbital C 22   p \
	OrthoOrbital C 22   px \
	OrthoOrbital C 22   py \
	OrthoOrbital C 22   pz \
	OrthoOrbital C 23   s \
	OrthoOrbital C 23   p \
	OrthoOrbital C 23   px \
	OrthoOrbital C 23   py \
	OrthoOrbital C 23   pz \
	OrthoOrbital C 24   s \
	OrthoOrbital C 24   p \
	OrthoOrbital C 24   px \
	OrthoOrbital C 24   py \
	OrthoOrbital C 24   pz \
	OrthoOrbital C 25   s \
	OrthoOrbital C 25   p \
	OrthoOrbital C 25   px \
	OrthoOrbital C 25   py \
	OrthoOrbital C 25   pz \
	OrthoOrbital C 26   s \
	OrthoOrbital C 26   p \
	OrthoOrbital C 26   px \
	OrthoOrbital C 26   py \
	OrthoOrbital C 26   pz \
	OrthoOrbital C 27   s \
	OrthoOrbital C 27   p \
	OrthoOrbital C 27   px \
	OrthoOrbital C 27   py \
	OrthoOrbital C 27   pz \
	OrthoOrbital C 28   s \
	OrthoOrbital C 28   p \
	OrthoOrbital C 28   px \
	OrthoOrbital C 28   py \
	OrthoOrbital C 28   pz \
	OrthoOrbital C 29   s \
	OrthoOrbital C 29   p \
	OrthoOrbital C 29   px \
	OrthoOrbital C 29   py \
	OrthoOrbital C 29   pz \
	OrthoOrbital C 30   s \
	OrthoOrbital C 30   p \
	OrthoOrbital C 30   px \
	OrthoOrbital C 30   py \
	OrthoOrbital C 30   pz \
	OrthoOrbital C 31   s \
	OrthoOrbital C 31   p \
	OrthoOrbital C 31   px \
	OrthoOrbital C 31   py \
	OrthoOrbital C 31   pz \
	OrthoOrbital C 32   s \
	OrthoOrbital C 32   p \
	OrthoOrbital C 32   px \
	OrthoOrbital C 32   py \
	OrthoOrbital C 32   pz \
	OrthoOrbital C 33   s \
	OrthoOrbital C 33   p \
	OrthoOrbital C 33   px \
	OrthoOrbital C 33   py \
	OrthoOrbital C 33   pz \
	OrthoOrbital C 34   s \
	OrthoOrbital C 34   p \
	OrthoOrbital C 34   px \
	OrthoOrbital C 34   py \
	OrthoOrbital C 34   pz \
	OrthoOrbital C 35   s \
	OrthoOrbital C 35   p \
	OrthoOrbital C 35   px \
	OrthoOrbital C 35   py \
	OrthoOrbital C 35   pz \
	OrthoOrbital C 36   s \
	OrthoOrbital C 36   p \
	OrthoOrbital C 36   px \
	OrthoOrbital C 36   py \
	OrthoOrbital C 36   pz \
	OrthoOrbital C 37   s \
	OrthoOrbital C 37   p \
	OrthoOrbital C 37   px \
	OrthoOrbital C 37   py \
	OrthoOrbital C 37   pz \
	OrthoOrbital C 38   s \
	OrthoOrbital C 38   p \
	OrthoOrbital C 38   px \
	OrthoOrbital C 38   py \
	OrthoOrbital C 38   pz \
	OrthoOrbital C 39   s \
	OrthoOrbital C 39   p \
	OrthoOrbital C 39   px \
	OrthoOrbital C 39   py \
	OrthoOrbital C 39   pz \
	OrthoOrbital C 40   s \
	OrthoOrbital C 40   p \
	OrthoOrbital C 40   px \
	OrthoOrbital C 40   py \
	OrthoOrbital C 40   pz \
	OrthoOrbital C 41   s \
	OrthoOrbital C 41   p \
	OrthoOrbital C 41   px \
	OrthoOrbital C 41   py \
	OrthoOrbital C 41   pz \
	OrthoOrbital C 42   s \
	OrthoOrbital C 42   p \
	OrthoOrbital C 42   px \
	OrthoOrbital C 42   py \
	OrthoOrbital C 42   pz \
	OrthoOrbital C 43   s \
	OrthoOrbital C 43   p \
	OrthoOrbital C 43   px \
	OrthoOrbital C 43   py \
	OrthoOrbital C 43   pz \
	OrthoOrbital C 44   s \
	OrthoOrbital C 44   p \
	OrthoOrbital C 44   px \
	OrthoOrbital C 44   py \
	OrthoOrbital C 44   pz \
	OrthoOrbital C 45   s \
	OrthoOrbital C 45   p \
	OrthoOrbital C 45   px \
	OrthoOrbital C 45   py \
	OrthoOrbital C 45   pz \
	OrthoOrbital N 1   s \
	OrthoOrbital N 1   p \
	OrthoOrbital N 1   px \
	OrthoOrbital N 1   py \
	OrthoOrbital N 1   pz \
	OrthoOrbital N 2   s \
	OrthoOrbital N 2   p \
	OrthoOrbital N 2   px \
	OrthoOrbital N 2   py \
	OrthoOrbital N 2   pz \
	OrthoOrbital N 3   s \
	OrthoOrbital N 3   p \
	OrthoOrbital N 3   px \
	OrthoOrbital N 3   py \
	OrthoOrbital N 3   pz \
	OrthoOrbital N 4   s \
	OrthoOrbital N 4   p \
	OrthoOrbital N 4   px \
	OrthoOrbital N 4   py \
	OrthoOrbital N 4   pz \
	OrthoOrbital Ti 1   s \
	OrthoOrbital Ti 1   p \
	OrthoOrbital Ti 1   px \
	OrthoOrbital Ti 1   py \
	OrthoOrbital Ti 1   pz \
	OrthoOrbital Ti 1   d \
	OrthoOrbital Ti 1   dxy \
	OrthoOrbital Ti 1   dyz \
	OrthoOrbital Ti 1   dz2 \
	OrthoOrbital Ti 1   dxz \
	OrthoOrbital Ti 1   dx2-y2 \
	OrthoOrbital O 1   s \
	OrthoOrbital O 1   p \
	OrthoOrbital O 1   px \
	OrthoOrbital O 1   py \
	OrthoOrbital O 1   pz
dump End ElecDensity KEdensity BandEigs EigStats RhoAtom DOS Kpoints
dump Ionic State IonicPositions Lattice EigStats Ecomponents
dump 
dump 
dump 
dump 
dump 
dump 
dump 
dump 
dump-name jdft.$VAR
elec-cutoff 20
elec-eigen-algo Davidson
elec-ex-corr gga-PBE
elec-initial-magnetization 0.000000 no
elec-n-bands 131
elec-smearing Fermi 0.001
electronic-minimize  \
	dirUpdateScheme      FletcherReeves \
	linminMethod         DirUpdateRecommended \
	nIterations          100 \
	history              15 \
	knormThreshold       0 \
	energyDiffThreshold  1e-07 \
	nEnergyDiff          2 \
	alphaTstart          1 \
	alphaTmin            1e-10 \
	updateTestStepSize   yes \
	alphaTreduceFactor   0.1 \
	alphaTincreaseFactor 3 \
	nAlphaAdjustMax      3 \
	wolfeEnergy          0.0001 \
	wolfeGradient        0.9 \
	fdTest               no
exchange-regularization WignerSeitzTruncated
fluid LinearPCM 298.000000 1.013250
fluid-anion F- 0.5 MeanFieldLJ \
	epsBulk 1 \
	pMol 0 \
	epsInf 1 \
	Pvap 0 \
	sigmaBulk 0 \
	Rvdw 2.24877 \
	Res 0 \
	tauNuc 343133
fluid-cation Na+ 0.5 MeanFieldLJ \
	epsBulk 1 \
	pMol 0 \
	epsInf 1 \
	Pvap 0 \
	sigmaBulk 0 \
	Rvdw 2.19208 \
	Res 0 \
	tauNuc 343133
fluid-ex-corr lda-TF lda-PZ
fluid-gummel-loop 10 1.000000e-05
fluid-minimize  \
	dirUpdateScheme      PolakRibiere \
	linminMethod         DirUpdateRecommended \
	nIterations          400 \
	history              15 \
	knormThreshold       1e-11 \
	energyDiffThreshold  0 \
	nEnergyDiff          2 \
	alphaTstart          1 \
	alphaTmin            1e-10 \
	updateTestStepSize   yes \
	alphaTreduceFactor   0.1 \
	alphaTincreaseFactor 3 \
	nAlphaAdjustMax      6 \
	wolfeEnergy          0.0001 \
	wolfeGradient        0.9 \
	fdTest               no
fluid-solvent H2O 55.338 ScalarEOS \
	epsBulk 78.4 \
	pMol 0.92466 \
	epsInf 1.77 \
	Pvap 1.06736e-10 \
	sigmaBulk 4.62e-05 \
	Rvdw 2.61727 \
	Res 1.42 \
	tauNuc 343133 \
	poleEl 15 7 1
forces-output-coords Positions
ion C  23.424986000000004   0.021063000000000   0.000049000000000 0
ion C  21.036470999999999   3.961892000000001  43.213290000000008 0
ion C  18.693038000000001   7.967490000000002  43.081883000000005 0
ion C  16.386144999999999  11.988491000000002  43.068005000000007 0
ion C  -9.376567000000000  15.986567000000003  43.189410000000009 0
ion C   4.678054000000001   0.122368000000000   0.052394000000000 0
ion C   2.280063000000000   4.131661000000000   0.182855000000000 0
ion C  -0.123928000000001   7.942418000000001   0.108846000000000 0
ion C  -2.432164000000000  11.956417000000004  43.188866000000004 0
ion C  -4.728618000000001  15.990997000000002  43.187217000000004 0
ion C   9.364107000000001   0.016203000000000   0.005808000000000 0
ion C   7.065728000000001   4.146105000000001   0.220603000000000 0
ion C  -0.034019000000001  15.885176000000003   0.030985000000000 0
ion C   2.336736999999998  19.847459000000001  43.253835000000009 0
ion C  11.746557000000001   3.956478000000001  43.225714000000011 0
ion C   9.467900000000000   7.951705000000001   0.152387000000000 0
ion C   4.665959000000001  15.741274000000002   0.188437000000000 0
ion C   6.987069000000002  19.849710000000002   0.000955000000000 0
ion C  16.391506000000000   3.935648000000000  43.136184000000007 0
ion C  14.083227000000004   7.964743000000001  43.078842000000009 0
ion C  11.766886000000000  11.966311000000001  43.198813000000008 0
ion C   9.362831000000002  15.886016000000001   0.053817000000000 0
ion C  -0.024909000000000   2.692406000000001   0.028479000000000 0
ion C  -2.429025000000000   6.617670000000001  43.187247000000006 0
ion C  -4.744360000000000  10.621106000000001  43.082180000000008 0
ion C  -7.051279000000001  14.649556000000002  43.137163000000008 0
ion C  -9.379940000000001  18.675635000000003  43.253613000000009 0
ion C   4.675505000000000   2.843784000000000   0.183629000000000 0
ion C  -0.125413000000000  10.635097000000004   0.111184000000000 0
ion C  -2.406516000000000  14.630103000000002  43.215176000000007 0
ion C  -4.729408000000000  18.680540000000004   0.000408000000000 0
ion C   9.372624000000002   2.706296000000000   0.050654000000000 0
ion C   2.272926000000000  14.449484000000000   0.188090000000000 0
ion C  -0.025468000000002  18.574537000000003   0.000588000000000 0
ion C  14.068620000000001   2.594869000000001  43.188144000000008 0
ion C  11.770647000000000   6.630162000000001  43.196671000000009 0
ion C   9.465944999999998  10.641020000000001   0.154799000000000 0
ion C   7.058187999999999  14.442632000000003   0.226048000000000 0
ion C   4.663590000000001  18.462600999999999   0.054259000000000 0
ion C  18.716221000000001   2.597588000000001  43.186371000000008 0
ion C  16.389056000000004   6.614865000000002  43.067376000000010 0
ion C  14.081617000000000  10.635481000000002  43.079379000000010 0
ion C  11.739115999999999  14.639818000000002  43.228307000000008 0
ion C   9.349610999999998  18.576045000000004   0.006953000000000 0
ion C   4.839515999999999   9.371354000000004   7.640142000000002 1
ion N   2.159812000000000  11.846146000000001   0.367413000000000 0
ion N   7.177949999999999  11.838317000000004   0.439987000000000 0
ion N   2.162998000000000   6.734627000000001   0.360435000000000 0
ion N   7.181811000000000   6.750317000000001   0.433407000000000 0
ion Ti   4.615947000000000   9.289327000000002   1.987164000000000 0
ion O   4.848291000000001   9.377097000000003   9.789512000000002 1
ion-species /projects/musgravc/apps/jdftx-1.6.0/build/pseudopotentials/GBRV_v1.5/$ID_pbe_v1.uspp
ion-species /projects/musgravc/apps/jdftx-1.6.0/build/pseudopotentials/GBRV_v1.5/$ID_pbe_v1.2.uspp
ion-species /projects/musgravc/apps/jdftx-1.6.0/build/pseudopotentials/GBRV_v1.5/$ID_pbe_v1.4.uspp
ion-species /projects/musgravc/apps/jdftx-1.6.0/build/pseudopotentials/GBRV_v1.5/$ID_pbe_v1.5.uspp
ion-width Ecut
ionic-minimize  \
	dirUpdateScheme      L-BFGS \
	linminMethod         DirUpdateRecommended \
	nIterations          0 \
	history              15 \
	knormThreshold       0.0001 \
	energyDiffThreshold  1e-06 \
	nEnergyDiff          2 \
	alphaTstart          1 \
	alphaTmin            1e-10 \
	updateTestStepSize   yes \
	alphaTreduceFactor   0.1 \
	alphaTincreaseFactor 3 \
	nAlphaAdjustMax      3 \
	wolfeEnergy          0.0001 \
	wolfeGradient        0.9 \
	fdTest               no
kpoint   0.000000000000   0.000000000000   0.000000000000  1.00000000000000
kpoint-folding 3 3 1 
latt-move-scale 0 0 0
latt-scale 1 1 1 
lattice  \
	  23.436261999999999  -11.733459000000000    0.000000000000000  \
	   0.017994000000000   19.941849000000001    0.000000000000000  \
	   0.000000000000000    0.000000000000000   43.256312999999999 
lattice-minimize  \
	dirUpdateScheme      L-BFGS \
	linminMethod         DirUpdateRecommended \
	nIterations          0 \
	history              15 \
	knormThreshold       0 \
	energyDiffThreshold  1e-06 \
	nEnergyDiff          2 \
	alphaTstart          1 \
	alphaTmin            1e-10 \
	updateTestStepSize   yes \
	alphaTreduceFactor   0.1 \
	alphaTincreaseFactor 3 \
	nAlphaAdjustMax      3 \
	wolfeEnergy          0.0001 \
	wolfeGradient        0.9 \
	fdTest               no
lcao-params 30 1e-06 0.001
pcm-variant CANDLE
spintype z-spin
subspace-rotation-factor 1 yes
symmetries none
symmetry-threshold 0.0001
target-mu -0.1602 no

van-der-waals D3
vibrations \
	dr 0.01\
	centralDiff no\
	useConstraints yes\
	translationSym yes\
	rotationSym no\
	omegaMin 0.0002\
	T 298\
	omegaResolution 0.0001


Applied RMS atom displacement 0 bohrs to make symmetries exact.
Applied RMS atom displacement 0 bohrs to make symmetries exact.

---------- Initializing the Grid ----------
R = 
[      23.4363     -11.7335            0  ]
[     0.017994      19.9418            0  ]
[            0            0      43.2563  ]
unit cell volume = 20225.5
G =
[   0.267976   0.157673         -0  ]
[ -0.000241801   0.314933          0  ]
[          0         -0   0.145255  ]
Minimum fftbox size, Smin = [  96  96  176  ]
Chosen fftbox size, S = [  96  96  180  ]

---------- Exchange Correlation functional ----------
Initalized PBE GGA exchange.
Initalized PBE GGA correlation.

---------- Setting up pseudopotentials ----------
Width of ionic core gaussian charges (only for fluid interactions / plotting) set to 0.397384

Reading pseudopotential file '/projects/musgravc/apps/jdftx-1.6.0/build/pseudopotentials/GBRV_v1.5/c_pbe_v1.2.uspp':
  Title: C.  Created by USPP 7.3.6 on 3-2-2014
  Reference state energy: -5.406344.  4 valence electrons in orbitals:
    |200>  occupation: 2  eigenvalue: -0.504890
    |210>  occupation: 2  eigenvalue: -0.194356
  lMax: 1  lLocal: 2  QijEcut: 5
  4 projectors sampled on a log grid with 503 points:
    l: 0  eig: -0.504890  rCut: 1.3
    l: 0  eig: 0.000000  rCut: 1.3
    l: 1  eig: -0.194357  rCut: 1.3
    l: 1  eig: 0.000000  rCut: 1.3
  Partial core density with radius 1.1
  Transforming core density to a uniform radial grid of dG=0.02 with 1464 points.
  Transforming local potential to a uniform radial grid of dG=0.02 with 1464 points.
  Transforming nonlocal projectors to a uniform radial grid of dG=0.02 with 432 points.
  Transforming density augmentations to a uniform radial grid of dG=0.02 with 1464 points.
  Transforming atomic orbitals to a uniform radial grid of dG=0.02 with 432 points.
  Core radius for overlap checks: 1.30 bohrs.

Reading pseudopotential file '/projects/musgravc/apps/jdftx-1.6.0/build/pseudopotentials/GBRV_v1.5/n_pbe_v1.2.uspp':
  Title: N.  Created by USPP 7.3.6 on 3-2-2014
  Reference state energy: -9.763716.  5 valence electrons in orbitals:
    |200>  occupation: 2  eigenvalue: -0.681964
    |210>  occupation: 3  eigenvalue: -0.260726
  lMax: 1  lLocal: 2  QijEcut: 6
  4 projectors sampled on a log grid with 491 points:
    l: 0  eig: -0.681964  rCut: 1.15
    l: 0  eig: 0.000000  rCut: 1.15
    l: 1  eig: -0.260729  rCut: 1.2
    l: 1  eig: 0.500000  rCut: 1.2
  Partial core density with radius 0.8
  Transforming core density to a uniform radial grid of dG=0.02 with 1464 points.
  Transforming local potential to a uniform radial grid of dG=0.02 with 1464 points.
  Transforming nonlocal projectors to a uniform radial grid of dG=0.02 with 432 points.
  Transforming density augmentations to a uniform radial grid of dG=0.02 with 1464 points.
  Transforming atomic orbitals to a uniform radial grid of dG=0.02 with 432 points.
  Core radius for overlap checks: 1.20 bohrs.

Reading pseudopotential file '/projects/musgravc/apps/jdftx-1.6.0/build/pseudopotentials/GBRV_v1.5/ti_pbe_v1.4.uspp':
  Title: Ti.  Created by USPP 7.3.6 on 31-3-15
  Reference state energy: -59.020943.  12 valence electrons in orbitals:
    |300>  occupation: 2  eigenvalue: -2.777623
    |310>  occupation: 6  eigenvalue: -1.894596
    |400>  occupation: 2  eigenvalue: -0.438610
    |320>  occupation: 1  eigenvalue: -0.583119
  lMax: 2  lLocal: 3  QijEcut: 6
  6 projectors sampled on a log grid with 597 points:
    l: 0  eig: -2.777624  rCut: 1.8
    l: 0  eig: -0.438611  rCut: 1.8
    l: 1  eig: -1.894596  rCut: 1.8
    l: 1  eig: 0.500000  rCut: 1.8
    l: 2  eig: -0.583118  rCut: 1.8
    l: 2  eig: 0.150000  rCut: 1.8
  Partial core density with radius 0.8
  Transforming core density to a uniform radial grid of dG=0.02 with 1464 points.
  Transforming local potential to a uniform radial grid of dG=0.02 with 1464 points.
  Transforming nonlocal projectors to a uniform radial grid of dG=0.02 with 432 points.
  Transforming density augmentations to a uniform radial grid of dG=0.02 with 1464 points.
  Transforming atomic orbitals to a uniform radial grid of dG=0.02 with 432 points.
  Core radius for overlap checks: 1.80 bohrs.

Reading pseudopotential file '/projects/musgravc/apps/jdftx-1.6.0/build/pseudopotentials/GBRV_v1.5/o_pbe_v1.2.uspp':
  Title: O.  Created by USPP 7.3.6 on 3-2-2014
  Reference state energy: -15.894388.  6 valence electrons in orbitals:
    |200>  occupation: 2  eigenvalue: -0.878823
    |210>  occupation: 4  eigenvalue: -0.332131
  lMax: 2  lLocal: 2  QijEcut: 6
  5 projectors sampled on a log grid with 511 points:
    l: 0  eig: -0.878823  rCut: 1.25
    l: 0  eig: 0.000000  rCut: 1.25
    l: 1  eig: -0.332132  rCut: 1.25
    l: 1  eig: 0.000000  rCut: 1.25
    l: 2  eig: 1.000000  rCut: 1.25
  Partial core density with radius 0.7
  Transforming core density to a uniform radial grid of dG=0.02 with 1464 points.
  Transforming local potential to a uniform radial grid of dG=0.02 with 1464 points.
  Transforming nonlocal projectors to a uniform radial grid of dG=0.02 with 432 points.
  Transforming density augmentations to a uniform radial grid of dG=0.02 with 1464 points.
  Transforming atomic orbitals to a uniform radial grid of dG=0.02 with 432 points.
  Core radius for overlap checks: 1.25 bohrs.

Initialized 4 species with 51 total atoms.

Folded 1 k-points by 3x3x1 to 9 k-points.

---------- Setting up k-points, bands, fillings ----------
No reducable k-points. 
Computing the number of bands and number of electrons
Calculating initial fillings.
nElectrons: 218.000000   nBands: 131   nStates: 18

----- Setting up reduced wavefunction bases (one per k-point) -----
average nbasis = 86412.556 , ideal nbasis = 86404.907

----- Initializing Supercell corresponding to k-point mesh -----
Lattice vector linear combinations in supercell:
[   3   0   0  ]
[   0   3   0  ]
[   0   0   1  ]
Supercell lattice vectors:
[  70.3088  -35.2004  0  ]
[  0.053982  59.8255  0  ]
[  0  0  43.2563  ]

Initializing DFT-D3 calculator:
	Parameters set for gga-PBE functional
	s6:  1.000  s_r6:  1.217
	s8:  0.722  s_r8:  1.000
	Per-atom parameters loaded for:
	 C:  sqrtQ[a0]:  3.105  Rcov[a0]:  1.417  CN: [ 0.00 0.99 2.00 3.00 3.98 ]
	 N:  sqrtQ[a0]:  2.712  Rcov[a0]:  1.342  CN: [ 0.00 0.99 2.01 2.99 ]
	Ti:  sqrtQ[a0]:  6.288  Rcov[a0]:  2.305  CN: [ 0.00 1.83 3.87 ]
	 O:  sqrtQ[a0]:  2.594  Rcov[a0]:  1.191  CN: [ 0.00 0.99 1.99 ]

Initializing DFT-D2 calculator for fluid / solvation:
	 C:  C6:   30.35 Eh-a0^6  R0: 2.744 a0
	 N:  C6:   21.33 Eh-a0^6  R0: 2.640 a0
	Ti:  C6:  187.33 Eh-a0^6  R0: 2.952 a0
	 O:  C6:   12.14 Eh-a0^6  R0: 2.536 a0

---------- Setting up ewald sum ----------
Optimum gaussian width for ewald sums = 5.644362 bohr.
Real space sum over 567 unit cells with max indices [  4  4  3  ]
Reciprocal space sum over 7803 terms with max indices [  8  8  13  ]

Computing DFT-D3 correction:
# coordination-number C 3.298 3.320 3.331 3.329 3.310 3.286 3.320 3.576 3.325 3.310 3.298 3.316 3.299 3.298 3.320 3.534 3.261 3.298 3.316 3.332 3.325 3.299 3.299 3.325 3.331 3.316 3.298 3.261 3.576 3.320 3.298 3.299 3.320 3.298 3.310 3.326 3.533 3.316 3.286 3.310 3.329 3.331 3.320 3.298 1.126
# coordination-number N 3.172 3.168 3.172 3.168
# coordination-number Ti 5.396
# coordination-number O 1.003
# diagonal-C6 C 24.30 24.08 23.96 23.99 24.18 24.41 24.08 20.58 24.03 24.18 24.30 24.12 24.29 24.30 24.08 21.15 24.62 24.31 24.12 23.96 24.02 24.29 24.29 24.03 23.96 24.12 24.30 24.62 20.58 24.08 24.30 24.29 24.08 24.30 24.18 24.02 21.15 24.12 24.41 24.19 23.99 23.96 24.08 24.31 42.53
# diagonal-C6 N 15.60 15.60 15.60 15.60
# diagonal-C6 Ti 321.59
# diagonal-C6 O 12.81
EvdW_6 =   -0.037591
EvdW_8 =   -0.030186

---------- Allocating electronic variables ----------
Initializing wave functions:  linear combination of atomic orbitals
C pseudo-atom occupations:   s ( 2 )  p ( 2 )
N pseudo-atom occupations:   s ( 2 )  p ( 3 )
Ti pseudo-atom occupations:   s ( 2 0 )  p ( 6 )  d ( 4 )
O pseudo-atom occupations:   s ( 2 )  p ( 4 )
	FillingsUpdate:  mu: -0.160200000  nElectrons: 218.000000  magneticMoment: [ Abs: 0.00440  Tot: +0.00001 ]
LCAOMinimize: Iter:   0  G: -331.7178766034837167  |grad|_K:  2.878e-03  alpha:  1.000e+00
	FillingsUpdate:  mu: -0.160200000  nElectrons: 218.000000  magneticMoment: [ Abs: 0.00433  Tot: +0.00000 ]
LCAOMinimize: Iter:   1  G: -332.0208671516355707  |grad|_K:  1.831e-03  alpha:  6.654e-02  linmin: -1.171e-01  cgtest:  1.294e+00  t[s]:    273.10
LCAOMinimize: Encountered beta<0, resetting CG.
LCAOMinimize: 	Predicted alpha/alphaT>3.000000, increasing alphaT to 1.996335e-01.
	FillingsUpdate:  mu: -0.160200000  nElectrons: 218.000000  magneticMoment: [ Abs: 0.00426  Tot: -0.00000 ]
LCAOMinimize: Iter:   2  G: -332.6399189712394673  |grad|_K:  1.450e-03  alpha:  3.440e-01  linmin: -1.011e-01  cgtest:  1.928e-01  t[s]:    409.78
	FillingsUpdate:  mu: -0.160200000  nElectrons: 218.000000  magneticMoment: [ Abs: 0.00426  Tot: -0.00000 ]
LCAOMinimize: Iter:   3  G: -332.6592364341362895  |grad|_K:  1.460e-03  alpha:  7.336e-03  linmin: -1.409e-01  cgtest:  9.698e-01  t[s]:    518.52
LCAOMinimize: 	Predicted alpha/alphaT>3.000000, increasing alphaT to 2.200810e-02.
LCAOMinimize: 	Predicted alpha/alphaT>3.000000, increasing alphaT to 6.602429e-02.
LCAOMinimize: 	Wrong curvature in test step, increasing alphaT to 1.980729e-01.
	FillingsUpdate:  mu: -0.160200000  nElectrons: 218.000000  magneticMoment: [ Abs: 0.00431  Tot: -0.00014 ]
LCAOMinimize: Iter:   4  G: -332.8031691635151219  |grad|_K:  1.440e-03  alpha: -1.628e-01  linmin: -1.439e-01  cgtest:  7.972e-01  t[s]:    680.51
	FillingsUpdate:  mu: -0.160200000  nElectrons: 218.000000  magneticMoment: [ Abs: 0.00448  Tot: -0.00029 ]
LCAOMinimize: Iter:   5  G: -332.8918326047439677  |grad|_K:  2.223e-03  alpha:  5.106e-02  linmin: -1.094e-02  cgtest:  3.487e-01  t[s]:    788.93
	FillingsUpdate:  mu: -0.160200000  nElectrons: 218.000000  magneticMoment: [ Abs: 0.00453  Tot: -0.00037 ]
LCAOMinimize: Iter:   6  G: -332.9763212341164831  |grad|_K:  2.270e-03  alpha:  1.386e-02  linmin: -3.036e-02  cgtest:  9.571e-01  t[s]:    897.69
	FillingsUpdate:  mu: -0.160200000  nElectrons: 218.000000  magneticMoment: [ Abs: 0.00436  Tot: -0.00024 ]
LCAOMinimize: Iter:   7  G: -333.0534381620601039  |grad|_K:  1.349e-03  alpha:  2.723e-02  linmin: -1.468e-01  cgtest:  4.489e-01  t[s]:   1006.38
LCAOMinimize: 	Wrong curvature in test step, increasing alphaT to 8.169504e-02.
	FillingsUpdate:  mu: -0.160200000  nElectrons: 218.000000  magneticMoment: [ Abs: 0.00436  Tot: -0.00024 ]
LCAOMinimize: Iter:   8  G: -333.1000985133132986  |grad|_K:  1.284e-03  alpha: -2.832e-01  linmin: -2.142e-01  cgtest:  8.805e-01  t[s]:   1112.75
	FillingsUpdate:  mu: -0.160200000  nElectrons: 218.000000  magneticMoment: [ Abs: 0.00439  Tot: -0.00019 ]
LCAOMinimize: Iter:   9  G: -333.1599524202927682  |grad|_K:  1.168e-03  alpha:  3.936e-02  linmin: -1.925e-01  cgtest:  7.596e-01  t[s]:   1221.65
LCAOMinimize: 	Predicted alpha/alphaT>3.000000, increasing alphaT to 1.180819e-01.
	FillingsUpdate:  mu: -0.160200000  nElectrons: 218.000000  magneticMoment: [ Abs: 0.00441  Tot: -0.00015 ]
LCAOMinimize: Iter:  10  G: -333.1827013234391757  |grad|_K:  1.255e-03  alpha:  1.454e-02  linmin: -2.076e-01  cgtest:  7.347e-01  t[s]:   1358.18
LCAOMinimize: 	Wrong curvature in test step, increasing alphaT to 4.360778e-02.
	FillingsUpdate:  mu: -0.160200000  nElectrons: 218.000000  magneticMoment: [ Abs: 0.00442  Tot: -0.00008 ]
LCAOMinimize: Iter:  11  G: -333.2134151737432717  |grad|_K:  7.046e-04  alpha: -1.043e-01  linmin: -2.050e-01  cgtest:  6.832e-01  t[s]:   1464.54
LCAOMinimize: Encountered beta<0, resetting CG.
LCAOMinimize: 	Step increased G by 1.806684e-02, reducing alpha to 7.264843e-03.
	FillingsUpdate:  mu: -0.160200000  nElectrons: 218.000000  magneticMoment: [ Abs: 0.00443  Tot: -0.00006 ]
LCAOMinimize: Iter:  12  G: -333.2159548061815144  |grad|_K:  5.581e-04  alpha:  7.265e-03  linmin: -1.204e-01  cgtest:  9.687e-01  t[s]:   1655.37
LCAOMinimize: Encountered beta<0, resetting CG.
LCAOMinimize: 	Predicted alpha/alphaT>3.000000, increasing alphaT to 2.179453e-02.
	FillingsUpdate:  mu: -0.160200000  nElectrons: 218.000000  magneticMoment: [ Abs: 0.00445  Tot: +0.00001 ]
LCAOMinimize: Iter:  13  G: -333.2199107976886125  |grad|_K:  3.903e-04  alpha:  3.254e-02  linmin:  9.287e-03  cgtest:  1.296e-02  t[s]:   1792.32
LCAOMinimize: 	Predicted alpha/alphaT>3.000000, increasing alphaT to 9.761080e-02.
	FillingsUpdate:  mu: -0.160200000  nElectrons: 218.000000  magneticMoment: [ Abs: 0.00462  Tot: +0.00019 ]
LCAOMinimize: Iter:  14  G: -333.2284415180922679  |grad|_K:  8.971e-05  alpha:  1.459e-01  linmin: -4.565e-03  cgtest:  2.881e-01  t[s]:   1928.86
LCAOMinimize: Encountered beta<0, resetting CG.
	FillingsUpdate:  mu: -0.160200000  nElectrons: 218.000000  magneticMoment: [ Abs: 0.00487  Tot: +0.00043 ]
LCAOMinimize: Iter:  15  G: -333.2288392112736801  |grad|_K:  1.768e-04  alpha:  1.169e-01  linmin:  7.222e-03  cgtest: -1.411e-01  t[s]:   2037.91
	FillingsUpdate:  mu: -0.160200000  nElectrons: 218.000000  magneticMoment: [ Abs: 0.00588  Tot: +0.00142 ]
LCAOMinimize: Iter:  16  G: -333.2294392067846047  |grad|_K:  1.691e-04  alpha:  6.781e-02  linmin:  1.589e-03  cgtest:  8.320e-01  t[s]:   2146.70
	FillingsUpdate:  mu: -0.160200000  nElectrons: 218.000000  magneticMoment: [ Abs: 0.00632  Tot: +0.00186 ]
LCAOMinimize: Iter:  17  G: -333.2296583722290393  |grad|_K:  7.612e-05  alpha:  2.255e-02  linmin: -3.562e-02  cgtest:  3.465e-01  t[s]:   2255.34
LCAOMinimize: 	Predicted alpha/alphaT>3.000000, increasing alphaT to 6.763671e-02.
	FillingsUpdate:  mu: -0.160200000  nElectrons: 218.000000  magneticMoment: [ Abs: 0.00801  Tot: +0.00350 ]
LCAOMinimize: Iter:  18  G: -333.2298736463850446  |grad|_K:  5.615e-05  alpha:  1.008e-01  linmin:  2.020e-02  cgtest: -6.168e-02  t[s]:   2392.14
	FillingsUpdate:  mu: -0.160200000  nElectrons: 218.000000  magneticMoment: [ Abs: 0.00896  Tot: +0.00442 ]
LCAOMinimize: Iter:  19  G: -333.2298757754371081  |grad|_K:  3.764e-05  alpha:  2.187e-02  linmin: -2.862e-02  cgtest:  7.137e-01  t[s]:   2500.55
LCAOMinimize: Encountered beta<0, resetting CG.
LCAOMinimize: 	Wrong curvature in test step, increasing alphaT to 6.559510e-02.
	FillingsUpdate:  mu: -0.160200000  nElectrons: 218.000000  magneticMoment: [ Abs: 0.00984  Tot: +0.00526 ]
LCAOMinimize: Iter:  20  G: -333.2299021276683675  |grad|_K:  3.014e-05  alpha: -1.784e-01  linmin: -1.155e-01  cgtest:  9.455e-01  t[s]:   2607.24
LCAOMinimize: Encountered beta<0, resetting CG.
	FillingsUpdate:  mu: -0.160200000  nElectrons: 218.000000  magneticMoment: [ Abs: 0.02313  Tot: +0.01764 ]
LCAOMinimize: Iter:  21  G: -333.2300229247758239  |grad|_K:  5.281e-05  alpha:  2.802e-01  linmin:  1.320e-02  cgtest: -3.047e-01  t[s]:   2716.04
	FillingsUpdate:  mu: -0.160200000  nElectrons: 218.000000  magneticMoment: [ Abs: 0.03809  Tot: +0.03139 ]
LCAOMinimize: Iter:  22  G: -333.2300409924300766  |grad|_K:  5.257e-05  alpha:  4.293e-02  linmin: -1.058e-03  cgtest:  6.545e-01  t[s]:   2824.94
	FillingsUpdate:  mu: -0.160200000  nElectrons: 218.000000  magneticMoment: [ Abs: 0.07355  Tot: +0.06363 ]
LCAOMinimize: Iter:  23  G: -333.2301659000689256  |grad|_K:  4.477e-05  alpha:  9.009e-02  linmin: -2.945e-02  cgtest:  4.327e-01  t[s]:   2933.72
LCAOMinimize: 	Predicted alpha/alphaT>3.000000, increasing alphaT to 2.702650e-01.
LCAOMinimize: 	Step increased G by 1.006459e-03, reducing alpha to 5.479695e-02.
	FillingsUpdate:  mu: -0.160200000  nElectrons: 218.000000  magneticMoment: [ Abs: 0.11307  Tot: +0.09942 ]
LCAOMinimize: Iter:  24  G: -333.2302676997895219  |grad|_K:  6.613e-05  alpha:  5.480e-02  linmin: -7.428e-02  cgtest:  8.278e-01  t[s]:   3150.94
LCAOMinimize: 	Wrong curvature in test step, increasing alphaT to 1.643908e-01.
	FillingsUpdate:  mu: -0.160200000  nElectrons: 218.000000  magneticMoment: [ Abs: 0.19268  Tot: +0.17093 ]
LCAOMinimize: Iter:  25  G: -333.2306752344476877  |grad|_K:  1.014e-04  alpha: -9.232e-02  linmin: -1.500e-01  cgtest:  1.082e+00  t[s]:   3257.27
	FillingsUpdate:  mu: -0.160200000  nElectrons: 218.000000  magneticMoment: [ Abs: 0.43623  Tot: +0.38882 ]
LCAOMinimize: Iter:  26  G: -333.2324430220925251  |grad|_K:  1.950e-04  alpha:  1.543e-01  linmin: -1.815e-02  cgtest:  1.139e+00  t[s]:   3366.03
	FillingsUpdate:  mu: -0.160200000  nElectrons: 218.000000  magneticMoment: [ Abs: 0.51190  Tot: +0.44479 ]
LCAOMinimize: Iter:  27  G: -333.2336517623792247  |grad|_K:  1.481e-04  alpha:  9.933e-02  linmin: -2.951e-03  cgtest: -2.159e-01  t[s]:   3474.44
	FillingsUpdate:  mu: -0.160200000  nElectrons: 218.000000  magneticMoment: [ Abs: 0.58919  Tot: +0.52017 ]
LCAOMinimize: Iter:  28  G: -333.2340243679879563  |grad|_K:  1.059e-04  alpha:  4.595e-02  linmin:  4.967e-03  cgtest: -4.663e-01  t[s]:   3583.21
LCAOMinimize: 	Wrong curvature in test step, increasing alphaT to 1.378412e-01.
	FillingsUpdate:  mu: -0.160200000  nElectrons: 218.000000  magneticMoment: [ Abs: 0.63263  Tot: +0.55773 ]
LCAOMinimize: Iter:  29  G: -333.2345486017576945  |grad|_K:  9.286e-05  alpha: -6.660e-02  linmin: -3.429e-02  cgtest:  9.854e-01  t[s]:   3689.46
LCAOMinimize: Encountered beta<0, resetting CG.
	FillingsUpdate:  mu: -0.160200000  nElectrons: 218.000000  magneticMoment: [ Abs: 0.61811  Tot: +0.53786 ]
LCAOMinimize: Iter:  30  G: -333.2347652888929019  |grad|_K:  8.309e-05  alpha:  3.732e-02  linmin:  2.745e-02  cgtest: -4.873e-01  t[s]:   3798.56
LCAOMinimize: None of the convergence criteria satisfied after 30 iterations.
----- createFluidSolver() ----- (Fluid-side solver setup)
   Initializing fluid molecule 'H2O'
     Initializing site 'O'
       Electron density: proportional to exp(-r/0.36935)*erfc((r-0.51523)/0.36823) with norm 6.826
       Charge density: gaussian nuclear width 0.478731 with net site charge 0.826
       Polarizability: cuspless exponential with width 0.32 and norm 3.73
       Hard sphere radius: 2.57003 bohrs
       Positions in reference frame:
         [ +0.000000 +0.000000 +0.000000 ]
     Initializing site 'H'
       Electron density: proportional to exp(-r/0.34641)*erfc((r-0)/0.390882) with norm 0.587
       Charge density: gaussian nuclear width 0.377945 with net site charge -0.413
       Polarizability: cuspless exponential with width 0.39 and norm 3.3
       Positions in reference frame:
         [ +0.000000 -1.441945 +1.122523 ]
         [ +0.000000 +1.441945 +1.122523 ]
     Net charge: 0   dipole magnitude: 0.927204
     Initializing spherical shell mfKernel with radius 2.61727 Bohr
     deltaS corrections:
       site 'O': -7.54299
       site 'H': -6.83917
   Initializing fluid molecule 'Na+'
     Initializing site 'Na'
       Electron density: proportional to exp(-r/0.19682)*erfc((r-0.71491)/0.41314) with norm 8.1383
       Charge density: gaussian nuclear width 0.365347 with net site charge -1
       Hard sphere radius: 1.86327 bohrs
       Positions in reference frame:
         [ +0.000000 +0.000000 +0.000000 ]
     Net charge: -1   dipole magnitude: 0
     Initializing gaussian mfKernel with width: 1.55004 Bohr
     deltaS corrections:
       site 'Na': -22.3555
   Initializing fluid molecule 'F-'
     Initializing site 'F'
       Electron density: proportional to exp(-r/0.38886)*erfc((r-0)/0.438782) with norm 8
       Charge density: gaussian nuclear width 0.374796 with net site charge 1
       Hard sphere radius: 2.39995 bohrs
       Positions in reference frame:
         [ +0.000000 +0.000000 +0.000000 ]
     Net charge: 1   dipole magnitude: 0
     Initializing gaussian mfKernel with width: 1.59012 Bohr
     deltaS corrections:
       site 'F': -9.04335

Correction to mu due to finite nuclear width = -0.0106944
   Cavity determined by nc: 0.00142 and sigma: 0.707107
   Nonlocal vdW cavity from gaussian model electron density with norm = 8 and sigma = 0.993594 bohr
   Charge asymmetry in cavity with sensitivity pCavity = 36.5 e-bohr/Eh
   Electrostatic cavity expanded by eta = 1.46 bohrs
   Weighted density cavitation model constrained by Nbulk: 0.0049383 bohr^-3, Pvap: 3.14029 kPa, Rvdw: 2.61727 bohr and sigmaBulk: 4.62e-05 Eh/bohr^2 at T: 298 K.
   Weighted density dispersion model using vdW pair potentials with single solvent site with sqrtC6eff: 0.77 SI.
WARNING: Vibrations: switching off translationSym and rotationSym since useConstraints is on.

---- Citations for features of the code used in this run ----

   Software package:
      R. Sundararaman, K. Letchworth-Weaver, K.A. Schwarz, D. Gunceler, Y. Ozhabes and T.A. Arias, 'JDFTx: software for joint density-functional theory', SoftwareX 6, 278 (2017)

   gga-PBE exchange-correlation functional:
      J.P. Perdew, K. Burke and M. Ernzerhof, Phys. Rev. Lett. 77, 3865 (1996)

   Pseudopotentials:
      KF Garrity, JW Bennett, KM Rabe and D Vanderbilt, Comput. Mater. Sci. 81, 446 (2014)

   DFT-D3 dispersion correction:
      S. Grimme, J. Antony, S. Ehrlich and H. Krieg, J. Chem. Phys. 132, 154104 (2010)

   DFT-D2 dispersion correction:
      S. Grimme, J. Comput. Chem. 27, 1787 (2006)

   Charge-asymmetric nonlocally-determined local-electric (CANDLE) solvation model:
      R. Sundararaman and W.A. Goddard III, J. Chem. Phys. 142, 064107 (2015)

   Total energy minimization with Auxiliary Hamiltonian:
      C. Freysoldt, S. Boeck, and J. Neugebauer, Phys. Rev. B 79, 241103(R) (2009)

   Grand-canonical (fixed-potential) DFT:
      R. Sundararaman, W. A. Goddard III and T. A. Arias, J. Chem. Phys. 146, 114104 (2017)

   Linear-tetrahedron sampling for density of states:
      G. Lehmann and M. Taut, Phys. status solidi (b) 54, 469 (1972)

This list may not be complete. Please suggest additional citations or
report any other bugs at https://github.com/shankar1729/jdftx/issues

Initialization completed successfully at t[s]:   3812.60

------ Vibrations::calculate() -------
WARNING: Vibrations module is experimental. Please report bugs!
Compare results with and without symmetries and report discrepancies.
Degrees of freedom: 6 total, 6 symmetry-independent.

Computing DFT-D3 correction:
# coordination-number C 3.298 3.320 3.331 3.329 3.310 3.286 3.320 3.576 3.325 3.310 3.298 3.316 3.299 3.298 3.320 3.534 3.261 3.298 3.316 3.332 3.325 3.299 3.299 3.325 3.331 3.316 3.298 3.261 3.576 3.320 3.298 3.299 3.320 3.298 3.310 3.326 3.533 3.316 3.286 3.310 3.329 3.331 3.320 3.298 1.126
# coordination-number N 3.172 3.168 3.172 3.168
# coordination-number Ti 5.396
# coordination-number O 1.003
# diagonal-C6 C 24.30 24.08 23.96 23.99 24.18 24.41 24.08 20.58 24.03 24.18 24.30 24.12 24.29 24.30 24.08 21.15 24.62 24.31 24.12 23.96 24.02 24.29 24.29 24.03 23.96 24.12 24.30 24.62 20.58 24.08 24.30 24.29 24.08 24.30 24.18 24.02 21.15 24.12 24.41 24.19 23.99 23.96 24.08 24.31 42.53
# diagonal-C6 N 15.60 15.60 15.60 15.60
# diagonal-C6 Ti 321.59
# diagonal-C6 O 12.81
EvdW_6 =   -0.037591
EvdW_8 =   -0.030186
Fluid solver invoked on fresh (random / LCAO) wavefunctions
Running a vacuum solve first:

-------- Initial electronic minimization -----------
	FillingsUpdate:  mu: -0.178953803  nElectrons: 218.000000  magneticMoment: [ Abs: 0.61811  Tot: +0.53786 ]
ElecMinimize: Iter:   0  G: -333.234954085723587  |grad|_K:  1.440e-04  alpha:  1.000e+00
	FillingsUpdate:  mu: -0.058764805  nElectrons: 218.000000  magneticMoment: [ Abs: 1.04603  Tot: +0.94546 ]
	SubspaceRotationAdjust: set factor to 1
ElecMinimize: Iter:   1  G: -336.113494384818011  |grad|_K:  4.029e-05  alpha:  6.899e-01  linmin:  2.203e-04  t[s]:   3984.99
	FillingsUpdate:  mu: -0.056854305  nElectrons: 218.000000  magneticMoment: [ Abs: 1.38305  Tot: +1.23135 ]
	SubspaceRotationAdjust: set factor to 0.662
ElecMinimize: Iter:   2  G: -336.320519935816606  |grad|_K:  4.272e-05  alpha:  6.232e-01  linmin:  4.003e-05  t[s]:   4089.32
	FillingsUpdate:  mu: -0.116963388  nElectrons: 218.000000  magneticMoment: [ Abs: 0.99838  Tot: +0.83197 ]
	SubspaceRotationAdjust: set factor to 0.314
ElecMinimize: Iter:   3  G: -336.335751243824632  |grad|_K:  4.778e-05  alpha:  1.409e-01  linmin:  2.757e-03  t[s]:   4194.04
ElecMinimize: 	Bad step direction: g.d > 0.
ElecMinimize: 	Undoing step.
ElecMinimize: 	Step failed: resetting search direction.
	FillingsUpdate:  mu: -0.116963388  nElectrons: 218.000000  magneticMoment: [ Abs: 0.99838  Tot: +0.83197 ]
	SubspaceRotationAdjust: set factor to 0.208
ElecMinimize: Iter:   4  G: -336.335751243824006  |grad|_K:  3.527e-05  alpha:  0.000e+00
	FillingsUpdate:  mu: -0.076854736  nElectrons: 218.000000  magneticMoment: [ Abs: 1.20256  Tot: +1.04271 ]
	SubspaceRotationAdjust: set factor to 0.263
ElecMinimize: Iter:   5  G: -336.367007399288696  |grad|_K:  1.444e-05  alpha:  1.290e-01  linmin: -6.382e-03  t[s]:   4377.66
ElecMinimize: 	Predicted alpha/alphaT>3.000000, increasing alphaT to 3.870914e-01.
	FillingsUpdate:  mu: -0.056370801  nElectrons: 218.000000  magneticMoment: [ Abs: 1.41186  Tot: +1.25281 ]
	SubspaceRotationAdjust: set factor to 0.199
ElecMinimize: Iter:   6  G: -336.389320813876964  |grad|_K:  1.271e-05  alpha:  4.557e-01  linmin:  5.608e-03  t[s]:   4509.70
	FillingsUpdate:  mu: -0.060402706  nElectrons: 218.000000  magneticMoment: [ Abs: 1.38147  Tot: +1.21604 ]
	SubspaceRotationAdjust: set factor to 0.233
ElecMinimize: Iter:   7  G: -336.398219615882738  |grad|_K:  1.014e-05  alpha:  3.683e-01  linmin: -6.143e-05  t[s]:   4614.23
	FillingsUpdate:  mu: -0.073575345  nElectrons: 218.000000  magneticMoment: [ Abs: 1.35042  Tot: +1.17380 ]
	SubspaceRotationAdjust: set factor to 0.219
ElecMinimize: Iter:   8  G: -336.407714617676561  |grad|_K:  6.540e-06  alpha:  4.432e-01  linmin: -4.613e-04  t[s]:   4718.84
	FillingsUpdate:  mu: -0.060895081  nElectrons: 218.000000  magneticMoment: [ Abs: 1.45386  Tot: +1.28176 ]
	SubspaceRotationAdjust: set factor to 0.234
ElecMinimize: Iter:   9  G: -336.411839761382737  |grad|_K:  4.161e-06  alpha:  4.523e-01  linmin:  3.730e-04  t[s]:   4823.86
	FillingsUpdate:  mu: -0.062541750  nElectrons: 218.000000  magneticMoment: [ Abs: 1.50367  Tot: +1.33363 ]
	SubspaceRotationAdjust: set factor to 0.242
ElecMinimize: Iter:  10  G: -336.413157375460344  |grad|_K:  2.990e-06  alpha:  3.894e-01  linmin:  2.901e-05  t[s]:   4928.62
	FillingsUpdate:  mu: -0.062918239  nElectrons: 218.000000  magneticMoment: [ Abs: 1.52753  Tot: +1.35765 ]
	SubspaceRotationAdjust: set factor to 0.276
ElecMinimize: Iter:  11  G: -336.414080644008038  |grad|_K:  2.435e-06  alpha:  5.031e-01  linmin: -1.773e-04  t[s]:   5033.64
	FillingsUpdate:  mu: -0.059501610  nElectrons: 218.000000  magneticMoment: [ Abs: 1.57014  Tot: +1.39932 ]
	SubspaceRotationAdjust: set factor to 0.28
ElecMinimize: Iter:  12  G: -336.414602954803399  |grad|_K:  2.105e-06  alpha:  4.187e-01  linmin:  1.628e-05  t[s]:   5138.65
	FillingsUpdate:  mu: -0.062711370  nElectrons: 218.000000  magneticMoment: [ Abs: 1.63437  Tot: +1.46060 ]
	SubspaceRotationAdjust: set factor to 0.319
ElecMinimize: Iter:  13  G: -336.415268355045328  |grad|_K:  1.892e-06  alpha:  7.493e-01  linmin:  9.574e-05  t[s]:   5243.38
	FillingsUpdate:  mu: -0.065615706  nElectrons: 218.000000  magneticMoment: [ Abs: 1.65940  Tot: +1.48324 ]
	SubspaceRotationAdjust: set factor to 0.326
ElecMinimize: Iter:  14  G: -336.415533266457146  |grad|_K:  1.571e-06  alpha:  3.584e-01  linmin: -1.303e-04  t[s]:   5348.57
	FillingsUpdate:  mu: -0.063832702  nElectrons: 218.000000  magneticMoment: [ Abs: 1.69026  Tot: +1.50935 ]
	SubspaceRotationAdjust: set factor to 0.358
ElecMinimize: Iter:  15  G: -336.415728669886903  |grad|_K:  1.098e-06  alpha:  3.781e-01  linmin: -3.753e-05  t[s]:   5453.51
	FillingsUpdate:  mu: -0.062041996  nElectrons: 218.000000  magneticMoment: [ Abs: 1.70849  Tot: +1.52281 ]
	SubspaceRotationAdjust: set factor to 0.322
ElecMinimize: Iter:  16  G: -336.415861685930167  |grad|_K:  1.204e-06  alpha:  5.354e-01  linmin: -7.284e-05  t[s]:   5558.61
	FillingsUpdate:  mu: -0.064335642  nElectrons: 218.000000  magneticMoment: [ Abs: 1.71344  Tot: +1.52560 ]
	SubspaceRotationAdjust: set factor to 0.311
ElecMinimize: Iter:  17  G: -336.415952895208250  |grad|_K:  6.944e-07  alpha:  2.977e-01  linmin: -5.978e-05  t[s]:   5663.50
	FillingsUpdate:  mu: -0.065068122  nElectrons: 218.000000  magneticMoment: [ Abs: 1.72005  Tot: +1.52929 ]
	SubspaceRotationAdjust: set factor to 0.308
ElecMinimize: Iter:  18  G: -336.416007510438703  |grad|_K:  7.097e-07  alpha:  5.536e-01  linmin:  6.321e-05  t[s]:   5768.74
	FillingsUpdate:  mu: -0.063719222  nElectrons: 218.000000  magneticMoment: [ Abs: 1.72723  Tot: +1.53325 ]
	SubspaceRotationAdjust: set factor to 0.299
ElecMinimize: Iter:  19  G: -336.416039366356074  |grad|_K:  4.865e-07  alpha:  3.143e-01  linmin:  2.494e-07  t[s]:   5873.86
	FillingsUpdate:  mu: -0.063472091  nElectrons: 218.000000  magneticMoment: [ Abs: 1.72965  Tot: +1.53378 ]
	SubspaceRotationAdjust: set factor to 0.37
ElecMinimize: Iter:  20  G: -336.416062429029864  |grad|_K:  4.199e-07  alpha:  4.779e-01  linmin:  1.540e-06  t[s]:   5979.27
	FillingsUpdate:  mu: -0.064454694  nElectrons: 218.000000  magneticMoment: [ Abs: 1.72850  Tot: +1.53216 ]
	SubspaceRotationAdjust: set factor to 0.333
ElecMinimize: Iter:  21  G: -336.416075412169732  |grad|_K:  3.663e-07  alpha:  3.604e-01  linmin:  4.340e-06  t[s]:   6084.46
	FillingsUpdate:  mu: -0.064395577  nElectrons: 218.000000  magneticMoment: [ Abs: 1.72919  Tot: +1.53148 ]
	SubspaceRotationAdjust: set factor to 0.426
ElecMinimize: Iter:  22  G: -336.416088043739990  |grad|_K:  2.648e-07  alpha:  4.625e-01  linmin:  3.667e-06  t[s]:   6189.47
	FillingsUpdate:  mu: -0.063893867  nElectrons: 218.000000  magneticMoment: [ Abs: 1.73039  Tot: +1.53174 ]
	SubspaceRotationAdjust: set factor to 0.386
ElecMinimize: Iter:  23  G: -336.416093425790223  |grad|_K:  2.264e-07  alpha:  3.768e-01  linmin:  1.670e-06  t[s]:   6294.45
	FillingsUpdate:  mu: -0.064186607  nElectrons: 218.000000  magneticMoment: [ Abs: 1.72954  Tot: +1.53082 ]
	SubspaceRotationAdjust: set factor to 0.359
ElecMinimize: Iter:  24  G: -336.416096656415505  |grad|_K:  1.576e-07  alpha:  3.090e-01  linmin:  2.008e-06  t[s]:   6399.21
	FillingsUpdate:  mu: -0.064157795  nElectrons: 218.000000  magneticMoment: [ Abs: 1.72864  Tot: +1.52996 ]
	SubspaceRotationAdjust: set factor to 0.405
ElecMinimize: Iter:  25  G: -336.416099169119150  |grad|_K:  1.236e-07  alpha:  4.965e-01  linmin:  2.194e-06  t[s]:   6504.37
	FillingsUpdate:  mu: -0.063951689  nElectrons: 218.000000  magneticMoment: [ Abs: 1.72827  Tot: +1.52961 ]
	SubspaceRotationAdjust: set factor to 0.385
ElecMinimize: Iter:  26  G: -336.416100502667121  |grad|_K:  1.217e-07  alpha:  4.291e-01  linmin: -5.951e-08  t[s]:   6609.73
	FillingsUpdate:  mu: -0.064171914  nElectrons: 218.000000  magneticMoment: [ Abs: 1.72724  Tot: +1.52886 ]
	SubspaceRotationAdjust: set factor to 0.378
ElecMinimize: Iter:  27  G: -336.416101461816424  |grad|_K:  7.387e-08  alpha:  3.174e-01  linmin:  9.395e-07  t[s]:   6714.56
	FillingsUpdate:  mu: -0.064179755  nElectrons: 218.000000  magneticMoment: [ Abs: 1.72685  Tot: +1.52869 ]
	SubspaceRotationAdjust: set factor to 0.429
ElecMinimize: Iter:  28  G: -336.416102089026140  |grad|_K:  6.588e-08  alpha:  5.645e-01  linmin:  2.255e-06  t[s]:   6819.56
	FillingsUpdate:  mu: -0.064036965  nElectrons: 218.000000  magneticMoment: [ Abs: 1.72677  Tot: +1.52875 ]
	SubspaceRotationAdjust: set factor to 0.399
ElecMinimize: Iter:  29  G: -336.416102419824540  |grad|_K:  5.764e-08  alpha:  3.747e-01  linmin:  2.323e-07  t[s]:   6924.76
	FillingsUpdate:  mu: -0.064116476  nElectrons: 218.000000  magneticMoment: [ Abs: 1.72618  Tot: +1.52845 ]
	SubspaceRotationAdjust: set factor to 0.386
ElecMinimize: Iter:  30  G: -336.416102658702982  |grad|_K:  4.308e-08  alpha:  3.528e-01  linmin:  1.092e-07  t[s]:   7029.96
	FillingsUpdate:  mu: -0.064126420  nElectrons: 218.000000  magneticMoment: [ Abs: 1.72585  Tot: +1.52835 ]
	SubspaceRotationAdjust: set factor to 0.466
ElecMinimize: Iter:  31  G: -336.416102865493770  |grad|_K:  3.319e-08  alpha:  5.468e-01  linmin:  4.336e-07  t[s]:   7135.27
	FillingsUpdate:  mu: -0.064070738  nElectrons: 218.000000  magneticMoment: [ Abs: 1.72595  Tot: +1.52850 ]
	SubspaceRotationAdjust: set factor to 0.439
ElecMinimize: Iter:  32  G: -336.416102957035548  |grad|_K:  2.975e-08  alpha:  4.073e-01  linmin: -4.112e-07  t[s]:   7240.12
	FillingsUpdate:  mu: -0.064119112  nElectrons: 218.000000  magneticMoment: [ Abs: 1.72586  Tot: +1.52849 ]
	SubspaceRotationAdjust: set factor to 0.387
ElecMinimize: Iter:  33  G: -336.416103014393457  |grad|_K:  2.352e-08  alpha:  3.176e-01  linmin: -1.176e-07  t[s]:   7344.99
ElecMinimize: Converged (|Delta G|<1.000000e-07 for 2 iters).
Setting wave functions to eigenvectors of Hamiltonian
Converging empty states (this may take a while): |deigs|: 6.550e-03
Vacuum energy after initial minimize, F = -336.416103014393457

Shifting auxilliary hamiltonian by -0.096081 to set nElectrons=218.000000

-------- Electronic minimization -----------
	Linear fluid (dielectric constant: 78.4, screening length: 8.12261 Bohr) occupying 0.717498 of unit cell:	Completed after 23 iterations at t[s]:   7891.74
	FillingsUpdate:  mu: -0.160200000  nElectrons: 218.000000  magneticMoment: [ Abs: 1.72625  Tot: +1.52879 ]
ElecMinimize: Iter:   0  G: -336.409991878566643  |grad|_K:  1.905e-05  alpha:  1.000e+00
	Linear fluid (dielectric constant: 78.4, screening length: 8.12261 Bohr) occupying 0.718984 of unit cell:	Completed after 23 iterations at t[s]:   7995.90
	Linear fluid (dielectric constant: 78.4, screening length: 8.12261 Bohr) occupying 0.718191 of unit cell:	Completed after 21 iterations at t[s]:   8042.24
ElecMinimize: 	Step increased G by 1.333666e-03, reducing alpha to 2.324024e-02.
	Linear fluid (dielectric constant: 78.4, screening length: 8.12261 Bohr) occupying 0.717575 of unit cell:	Completed after 20 iterations at t[s]:   8130.24
	FillingsUpdate:  mu: -0.160200000  nElectrons: 217.922029  magneticMoment: [ Abs: 1.66117  Tot: +1.45755 ]
	SubspaceRotationAdjust: set factor to 0.196
ElecMinimize: Iter:   1  G: -336.413212320975902  |grad|_K:  1.615e-05  alpha:  2.324e-02  linmin: -6.137e-02  t[s]:   8176.44
	Linear fluid (dielectric constant: 78.4, screening length: 8.12261 Bohr) occupying 0.717717 of unit cell:	Completed after 16 iterations at t[s]:   8224.69
ElecMinimize: 	Predicted alpha/alphaT>3.000000, increasing alphaT to 6.972071e-02.
	Linear fluid (dielectric constant: 78.4, screening length: 8.12261 Bohr) occupying 0.717978 of unit cell:	Completed after 17 iterations at t[s]:   8268.32
	Linear fluid (dielectric constant: 78.4, screening length: 8.12261 Bohr) occupying 0.717970 of unit cell:	Completed after 7 iterations at t[s]:   8305.92
	FillingsUpdate:  mu: -0.160200000  nElectrons: 217.581593  magneticMoment: [ Abs: 1.38019  Tot: +1.13234 ]
	SubspaceRotationAdjust: set factor to 0.134
ElecMinimize: Iter:   2  G: -336.419938135430357  |grad|_K:  1.059e-05  alpha:  6.802e-02  linmin: -1.708e-04  t[s]:   8352.52
	Linear fluid (dielectric constant: 78.4, screening length: 8.12261 Bohr) occupying 0.718198 of unit cell:	Completed after 15 iterations at t[s]:   8400.19
ElecMinimize: 	Predicted alpha/alphaT>3.000000, increasing alphaT to 2.040561e-01.
	Linear fluid (dielectric constant: 78.4, screening length: 8.12261 Bohr) occupying 0.718544 of unit cell:	Completed after 15 iterations at t[s]:   8442.52
	Linear fluid (dielectric constant: 78.4, screening length: 8.12261 Bohr) occupying 0.718761 of unit cell:	Completed after 13 iterations at t[s]:   8483.81
	FillingsUpdate:  mu: -0.160200000  nElectrons: 217.274450  magneticMoment: [ Abs: 1.18057  Tot: +0.83142 ]
	SubspaceRotationAdjust: set factor to 0.0822
ElecMinimize: Iter:   3  G: -336.427353964512463  |grad|_K:  1.028e-05  alpha:  3.128e-01  linmin: -6.691e-04  t[s]:   8529.65
	Linear fluid (dielectric constant: 78.4, screening length: 8.12261 Bohr) occupying 0.719574 of unit cell:	Completed after 18 iterations at t[s]:   8579.29
	Linear fluid (dielectric constant: 78.4, screening length: 8.12261 Bohr) occupying 0.719322 of unit cell:	Completed after 11 iterations at t[s]:   8619.41
	FillingsUpdate:  mu: -0.160200000  nElectrons: 217.264188  magneticMoment: [ Abs: 1.21531  Tot: +0.83738 ]
	SubspaceRotationAdjust: set factor to 0.0692
ElecMinimize: Iter:   4  G: -336.431985045320403  |grad|_K:  5.336e-06  alpha:  2.125e-01  linmin:  2.271e-06  t[s]:   8665.71
	Linear fluid (dielectric constant: 78.4, screening length: 8.12261 Bohr) occupying 0.719628 of unit cell:	Completed after 9 iterations at t[s]:   8709.67
	Linear fluid (dielectric constant: 78.4, screening length: 8.12261 Bohr) occupying 0.720058 of unit cell:	Completed after 9 iterations at t[s]:   8748.32
	FillingsUpdate:  mu: -0.160200000  nElectrons: 217.199358  magneticMoment: [ Abs: 1.20875  Tot: +0.85376 ]
	SubspaceRotationAdjust: set factor to 0.0881
ElecMinimize: Iter:   5  G: -336.435010456085763  |grad|_K:  2.645e-06  alpha:  5.129e-01  linmin: -3.771e-04  t[s]:   8794.16
	Linear fluid (dielectric constant: 78.4, screening length: 8.12261 Bohr) occupying 0.720441 of unit cell:	Completed after 13 iterations at t[s]:   8840.58
	Linear fluid (dielectric constant: 78.4, screening length: 8.12261 Bohr) occupying 0.720623 of unit cell:	Completed after 12 iterations at t[s]:   8881.25
	FillingsUpdate:  mu: -0.160200000  nElectrons: 217.092070  magneticMoment: [ Abs: 1.16307  Tot: +0.84660 ]
	SubspaceRotationAdjust: set factor to 0.0754
ElecMinimize: Iter:   6  G: -336.436092676817168  |grad|_K:  2.567e-06  alpha:  7.579e-01  linmin:  8.042e-04  t[s]:   8927.39
	Linear fluid (dielectric constant: 78.4, screening length: 8.12261 Bohr) occupying 0.721292 of unit cell:	Completed after 13 iterations at t[s]:   8973.83
	Linear fluid (dielectric constant: 78.4, screening length: 8.12261 Bohr) occupying 0.720931 of unit cell:	Completed after 11 iterations at t[s]:   9013.73
	FillingsUpdate:  mu: -0.160200000  nElectrons: 217.075927  magneticMoment: [ Abs: 1.17980  Tot: +0.88523 ]
	SubspaceRotationAdjust: set factor to 0.0796
ElecMinimize: Iter:   7  G: -336.436525100678239  |grad|_K:  1.669e-06  alpha:  3.460e-01  linmin:  2.159e-05  t[s]:   9059.77
	Linear fluid (dielectric constant: 78.4, screening length: 8.12261 Bohr) occupying 0.721078 of unit cell:	Completed after 7 iterations at t[s]:   9102.46
	Linear fluid (dielectric constant: 78.4, screening length: 8.12261 Bohr) occupying 0.721215 of unit cell:	Completed after 8 iterations at t[s]:   9140.53
	FillingsUpdate:  mu: -0.160200000  nElectrons: 217.046034  magneticMoment: [ Abs: 1.18958  Tot: +0.91168 ]
	SubspaceRotationAdjust: set factor to 0.097
ElecMinimize: Iter:   8  G: -336.436906864811533  |grad|_K:  1.218e-06  alpha:  6.733e-01  linmin: -8.508e-06  t[s]:   9186.29
	Linear fluid (dielectric constant: 78.4, screening length: 8.12261 Bohr) occupying 0.721327 of unit cell:	Completed after 13 iterations at t[s]:   9232.99
	Linear fluid (dielectric constant: 78.4, screening length: 8.12261 Bohr) occupying 0.721297 of unit cell:	Completed after 9 iterations at t[s]:   9271.72
	FillingsUpdate:  mu: -0.160200000  nElectrons: 217.012932  magneticMoment: [ Abs: 1.17880  Tot: +0.90582 ]
	SubspaceRotationAdjust: set factor to 0.0918
ElecMinimize: Iter:   9  G: -336.437054165985899  |grad|_K:  1.129e-06  alpha:  4.886e-01  linmin: -1.608e-05  t[s]:   9317.47
	Linear fluid (dielectric constant: 78.4, screening length: 8.12261 Bohr) occupying 0.721343 of unit cell:	Completed after 8 iterations at t[s]:   9360.81
	Linear fluid (dielectric constant: 78.4, screening length: 8.12261 Bohr) occupying 0.721346 of unit cell:	Completed after 2 iterations at t[s]:   9395.22
	FillingsUpdate:  mu: -0.160200000  nElectrons: 216.998533  magneticMoment: [ Abs: 1.18319  Tot: +0.91502 ]
	SubspaceRotationAdjust: set factor to 0.101
ElecMinimize: Iter:  10  G: -336.437190093073923  |grad|_K:  9.036e-07  alpha:  5.223e-01  linmin:  2.717e-05  t[s]:   9441.05
	Linear fluid (dielectric constant: 78.4, screening length: 8.12261 Bohr) occupying 0.721359 of unit cell:	Completed after 8 iterations at t[s]:   9484.38
	Linear fluid (dielectric constant: 78.4, screening length: 8.12261 Bohr) occupying 0.721362 of unit cell:	Completed after 2 iterations at t[s]:   9518.74
	FillingsUpdate:  mu: -0.160200000  nElectrons: 216.980607  magneticMoment: [ Abs: 1.17914  Tot: +0.91508 ]
	SubspaceRotationAdjust: set factor to 0.119
ElecMinimize: Iter:  11  G: -336.437299152506625  |grad|_K:  7.736e-07  alpha:  6.558e-01  linmin: -6.376e-05  t[s]:   9564.59
	Linear fluid (dielectric constant: 78.4, screening length: 8.12261 Bohr) occupying 0.721370 of unit cell:	Completed after 7 iterations at t[s]:   9607.58
	Linear fluid (dielectric constant: 78.4, screening length: 8.12261 Bohr) occupying 0.721370 of unit cell:	Completed after 2 iterations at t[s]:   9641.87
	FillingsUpdate:  mu: -0.160200000  nElectrons: 216.969621  magneticMoment: [ Abs: 1.17508  Tot: +0.91575 ]
	SubspaceRotationAdjust: set factor to 0.138
ElecMinimize: Iter:  12  G: -336.437389839675689  |grad|_K:  7.156e-07  alpha:  7.314e-01  linmin: -6.097e-05  t[s]:   9687.82
	Linear fluid (dielectric constant: 78.4, screening length: 8.12261 Bohr) occupying 0.721384 of unit cell:	Completed after 9 iterations at t[s]:   9731.71
	Linear fluid (dielectric constant: 78.4, screening length: 8.12261 Bohr) occupying 0.721378 of unit cell:	Completed after 7 iterations at t[s]:   9769.13
	FillingsUpdate:  mu: -0.160200000  nElectrons: 216.974323  magneticMoment: [ Abs: 1.17967  Tot: +0.92348 ]
	SubspaceRotationAdjust: set factor to 0.103
ElecMinimize: Iter:  13  G: -336.437429021736307  |grad|_K:  6.825e-07  alpha:  3.652e-01  linmin: -1.861e-05  t[s]:   9815.10
	Linear fluid (dielectric constant: 78.4, screening length: 8.12261 Bohr) occupying 0.721386 of unit cell:	Completed after 9 iterations at t[s]:   9858.88
	Linear fluid (dielectric constant: 78.4, screening length: 8.12261 Bohr) occupying 0.721389 of unit cell:	Completed after 3 iterations at t[s]:   9893.88
	FillingsUpdate:  mu: -0.160200000  nElectrons: 216.962578  magneticMoment: [ Abs: 1.16681  Tot: +0.91500 ]
	SubspaceRotationAdjust: set factor to 0.0906
ElecMinimize: Iter:  14  G: -336.437475323201397  |grad|_K:  4.804e-07  alpha:  4.840e-01  linmin: -4.788e-05  t[s]:   9939.88
	Linear fluid (dielectric constant: 78.4, screening length: 8.12261 Bohr) occupying 0.721400 of unit cell:	Completed after 3 iterations at t[s]:   9980.00
	Linear fluid (dielectric constant: 78.4, screening length: 8.12261 Bohr) occupying 0.721403 of unit cell:	Completed after 2 iterations at t[s]:  10014.31
	FillingsUpdate:  mu: -0.160200000  nElectrons: 216.963023  magneticMoment: [ Abs: 1.16288  Tot: +0.91517 ]
	SubspaceRotationAdjust: set factor to 0.117
ElecMinimize: Iter:  15  G: -336.437504143596243  |grad|_K:  3.772e-07  alpha:  6.052e-01  linmin: -7.189e-06  t[s]:  10060.20
	Linear fluid (dielectric constant: 78.4, screening length: 8.12261 Bohr) occupying 0.721416 of unit cell:	Completed after 7 iterations at t[s]:  10102.87
	Linear fluid (dielectric constant: 78.4, screening length: 8.12261 Bohr) occupying 0.721416 of unit cell:	Completed after 0 iterations at t[s]:  10135.20
	FillingsUpdate:  mu: -0.160200000  nElectrons: 216.969853  magneticMoment: [ Abs: 1.16396  Tot: +0.91987 ]
	SubspaceRotationAdjust: set factor to 0.0836
ElecMinimize: Iter:  16  G: -336.437521600812545  |grad|_K:  3.557e-07  alpha:  6.006e-01  linmin:  8.378e-05  t[s]:  10181.10
	Linear fluid (dielectric constant: 78.4, screening length: 8.12261 Bohr) occupying 0.721427 of unit cell:	Completed after 7 iterations at t[s]:  10223.73
	Linear fluid (dielectric constant: 78.4, screening length: 8.12261 Bohr) occupying 0.721422 of unit cell:	Completed after 4 iterations at t[s]:  10259.19
	FillingsUpdate:  mu: -0.160200000  nElectrons: 216.967567  magneticMoment: [ Abs: 1.15796  Tot: +0.91592 ]
	SubspaceRotationAdjust: set factor to 0.0676
ElecMinimize: Iter:  17  G: -336.437530221521058  |grad|_K:  2.752e-07  alpha:  3.393e-01  linmin:  1.090e-05  t[s]:  10305.08
	Linear fluid (dielectric constant: 78.4, screening length: 8.12261 Bohr) occupying 0.721425 of unit cell:	Completed after 2 iterations at t[s]:  10344.60
	Linear fluid (dielectric constant: 78.4, screening length: 8.12261 Bohr) occupying 0.721428 of unit cell:	Completed after 2 iterations at t[s]:  10378.89
	FillingsUpdate:  mu: -0.160200000  nElectrons: 216.970107  magneticMoment: [ Abs: 1.15412  Tot: +0.91511 ]
	SubspaceRotationAdjust: set factor to 0.093
ElecMinimize: Iter:  18  G: -336.437539920317477  |grad|_K:  1.901e-07  alpha:  6.315e-01  linmin:  3.338e-05  t[s]:  10424.81
	Linear fluid (dielectric constant: 78.4, screening length: 8.12261 Bohr) occupying 0.721428 of unit cell:	Completed after 3 iterations at t[s]:  10464.97
	Linear fluid (dielectric constant: 78.4, screening length: 8.12261 Bohr) occupying 0.721428 of unit cell:	Completed after 3 iterations at t[s]:  10499.85
	FillingsUpdate:  mu: -0.160200000  nElectrons: 216.975092  magneticMoment: [ Abs: 1.15373  Tot: +0.91699 ]
	SubspaceRotationAdjust: set factor to 0.09
ElecMinimize: Iter:  19  G: -336.437545352906170  |grad|_K:  1.806e-07  alpha:  7.564e-01  linmin:  1.714e-04  t[s]:  10545.70
	Linear fluid (dielectric constant: 78.4, screening length: 8.12261 Bohr) occupying 0.721422 of unit cell:	Completed after 3 iterations at t[s]:  10585.76
	Linear fluid (dielectric constant: 78.4, screening length: 8.12261 Bohr) occupying 0.721425 of unit cell:	Completed after 3 iterations at t[s]:  10620.54
	FillingsUpdate:  mu: -0.160200000  nElectrons: 216.975336  magneticMoment: [ Abs: 1.15104  Tot: +0.91546 ]
	SubspaceRotationAdjust: set factor to 0.0789
ElecMinimize: Iter:  20  G: -336.437547912571233  |grad|_K:  1.568e-07  alpha:  4.086e-01  linmin:  6.045e-05  t[s]:  10666.43
	Linear fluid (dielectric constant: 78.4, screening length: 8.12261 Bohr) occupying 0.721420 of unit cell:	Completed after 2 iterations at t[s]:  10705.97
	Linear fluid (dielectric constant: 78.4, screening length: 8.12261 Bohr) occupying 0.721418 of unit cell:	Completed after 2 iterations at t[s]:  10740.13
	FillingsUpdate:  mu: -0.160200000  nElectrons: 216.978512  magneticMoment: [ Abs: 1.15054  Tot: +0.91631 ]
	SubspaceRotationAdjust: set factor to 0.0827
ElecMinimize: Iter:  21  G: -336.437550582017082  |grad|_K:  1.229e-07  alpha:  5.385e-01  linmin: -4.652e-05  t[s]:  10786.19
	Linear fluid (dielectric constant: 78.4, screening length: 8.12261 Bohr) occupying 0.721411 of unit cell:	Completed after 2 iterations at t[s]:  10825.67
	Linear fluid (dielectric constant: 78.4, screening length: 8.12261 Bohr) occupying 0.721409 of unit cell:	Completed after 0 iterations at t[s]:  10858.66
	FillingsUpdate:  mu: -0.160200000  nElectrons: 216.980145  magneticMoment: [ Abs: 1.14916  Tot: +0.91599 ]
	SubspaceRotationAdjust: set factor to 0.101
ElecMinimize: Iter:  22  G: -336.437552711584829  |grad|_K:  1.032e-07  alpha:  6.816e-01  linmin: -2.945e-04  t[s]:  10904.68
	Linear fluid (dielectric constant: 78.4, screening length: 8.12261 Bohr) occupying 0.721402 of unit cell:	Completed after 3 iterations at t[s]:  10945.14
	Linear fluid (dielectric constant: 78.4, screening length: 8.12261 Bohr) occupying 0.721403 of unit cell:	Completed after 0 iterations at t[s]:  10977.43
	FillingsUpdate:  mu: -0.160200000  nElectrons: 216.980341  magneticMoment: [ Abs: 1.14757  Tot: +0.91503 ]
	SubspaceRotationAdjust: set factor to 0.0832
ElecMinimize: Iter:  23  G: -336.437554038251051  |grad|_K:  1.252e-07  alpha:  5.849e-01  linmin:  3.920e-04  t[s]:  11023.82
	Linear fluid (dielectric constant: 78.4, screening length: 8.12261 Bohr) occupying 0.721393 of unit cell:	Completed after 5 iterations at t[s]:  11065.19
	Linear fluid (dielectric constant: 78.4, screening length: 8.12261 Bohr) occupying 0.721398 of unit cell:	Completed after 3 iterations at t[s]:  11100.08
	FillingsUpdate:  mu: -0.160200000  nElectrons: 216.982561  magneticMoment: [ Abs: 1.14815  Tot: +0.91622 ]
	SubspaceRotationAdjust: set factor to 0.0685
ElecMinimize: Iter:  24  G: -336.437554943683722  |grad|_K:  9.078e-08  alpha:  3.248e-01  linmin: -3.337e-05  t[s]:  11145.86
	Linear fluid (dielectric constant: 78.4, screening length: 8.12261 Bohr) occupying 0.721395 of unit cell:	Completed after 0 iterations at t[s]:  11183.56
	Linear fluid (dielectric constant: 78.4, screening length: 8.12261 Bohr) occupying 0.721392 of unit cell:	Completed after 1 iterations at t[s]:  11217.04
	FillingsUpdate:  mu: -0.160200000  nElectrons: 216.983487  magneticMoment: [ Abs: 1.14762  Tot: +0.91637 ]
	SubspaceRotationAdjust: set factor to 0.0883
ElecMinimize: Iter:  25  G: -336.437556026360653  |grad|_K:  8.763e-08  alpha:  7.151e-01  linmin:  5.943e-04  t[s]:  11262.88
	Linear fluid (dielectric constant: 78.4, screening length: 8.12261 Bohr) occupying 0.721388 of unit cell:	Completed after 3 iterations at t[s]:  11303.40
	Linear fluid (dielectric constant: 78.4, screening length: 8.12261 Bohr) occupying 0.721389 of unit cell:	Completed after 1 iterations at t[s]:  11337.04
	FillingsUpdate:  mu: -0.160200000  nElectrons: 216.982763  magneticMoment: [ Abs: 1.14629  Tot: +0.91542 ]
	SubspaceRotationAdjust: set factor to 0.0766
ElecMinimize: Iter:  26  G: -336.437556780405487  |grad|_K:  8.597e-08  alpha:  5.381e-01  linmin:  2.682e-04  t[s]:  11383.05
	Linear fluid (dielectric constant: 78.4, screening length: 8.12261 Bohr) occupying 0.721388 of unit cell:	Completed after 2 iterations at t[s]:  11422.60
	Linear fluid (dielectric constant: 78.4, screening length: 8.12261 Bohr) occupying 0.721389 of unit cell:	Completed after 0 iterations at t[s]:  11454.88
	FillingsUpdate:  mu: -0.160200000  nElectrons: 216.983339  magneticMoment: [ Abs: 1.14657  Tot: +0.91598 ]
	SubspaceRotationAdjust: set factor to 0.0607
ElecMinimize: Iter:  27  G: -336.437557349046870  |grad|_K:  6.669e-08  alpha:  3.867e-01  linmin:  5.685e-04  t[s]:  11500.80
	Linear fluid (dielectric constant: 78.4, screening length: 8.12261 Bohr) occupying 0.721390 of unit cell:	Completed after 2 iterations at t[s]:  11540.52
	Linear fluid (dielectric constant: 78.4, screening length: 8.12261 Bohr) occupying 0.721390 of unit cell:	Completed after 0 iterations at t[s]:  11572.80
	FillingsUpdate:  mu: -0.160200000  nElectrons: 216.982778  magneticMoment: [ Abs: 1.14611  Tot: +0.91564 ]
	SubspaceRotationAdjust: set factor to 0.0575
ElecMinimize: Iter:  28  G: -336.437557676872871  |grad|_K:  4.367e-08  alpha:  3.984e-01  linmin: -1.358e-03  t[s]:  11618.67
	Linear fluid (dielectric constant: 78.4, screening length: 8.12261 Bohr) occupying 0.721391 of unit cell:	Completed after 0 iterations at t[s]:  11656.36
	Linear fluid (dielectric constant: 78.4, screening length: 8.12261 Bohr) occupying 0.721393 of unit cell:	Completed after 1 iterations at t[s]:  11689.85
	FillingsUpdate:  mu: -0.160200000  nElectrons: 216.982673  magneticMoment: [ Abs: 1.14627  Tot: +0.91594 ]
	SubspaceRotationAdjust: set factor to 0.0651
ElecMinimize: Iter:  29  G: -336.437557959406320  |grad|_K:  4.457e-08  alpha:  7.120e-01  linmin:  6.001e-04  t[s]:  11735.87
	Linear fluid (dielectric constant: 78.4, screening length: 8.12261 Bohr) occupying 0.721397 of unit cell:	Completed after 2 iterations at t[s]:  11775.34
	Linear fluid (dielectric constant: 78.4, screening length: 8.12261 Bohr) occupying 0.721396 of unit cell:	Completed after 0 iterations at t[s]:  11807.63
	FillingsUpdate:  mu: -0.160200000  nElectrons: 216.982435  magneticMoment: [ Abs: 1.14643  Tot: +0.91620 ]
	SubspaceRotationAdjust: set factor to 0.07
ElecMinimize: Iter:  30  G: -336.437558142959688  |grad|_K:  4.952e-08  alpha:  5.471e-01  linmin: -9.566e-05  t[s]:  11853.54
	Linear fluid (dielectric constant: 78.4, screening length: 8.12261 Bohr) occupying 0.721400 of unit cell:	Completed after 1 iterations at t[s]:  11892.42
	Linear fluid (dielectric constant: 78.4, screening length: 8.12261 Bohr) occupying 0.721398 of unit cell:	Completed after 0 iterations at t[s]:  11925.30
	FillingsUpdate:  mu: -0.160200000  nElectrons: 216.981604  magneticMoment: [ Abs: 1.14607  Tot: +0.91589 ]
	SubspaceRotationAdjust: set factor to 0.0585
ElecMinimize: Iter:  31  G: -336.437558322100756  |grad|_K:  4.250e-08  alpha:  3.373e-01  linmin:  5.446e-04  t[s]:  11971.20
	Linear fluid (dielectric constant: 78.4, screening length: 8.12261 Bohr) occupying 0.721400 of unit cell:	Completed after 0 iterations at t[s]:  12009.47
	Linear fluid (dielectric constant: 78.4, screening length: 8.12261 Bohr) occupying 0.721400 of unit cell:	Completed after 1 iterations at t[s]:  12043.08
	FillingsUpdate:  mu: -0.160200000  nElectrons: 216.981128  magneticMoment: [ Abs: 1.14617  Tot: +0.91607 ]
	SubspaceRotationAdjust: set factor to 0.0598
ElecMinimize: Iter:  32  G: -336.437558438158305  |grad|_K:  3.379e-08  alpha:  4.892e-01  linmin:  1.683e-04  t[s]:  12089.10
	Linear fluid (dielectric constant: 78.4, screening length: 8.12261 Bohr) occupying 0.721401 of unit cell:	Completed after 0 iterations at t[s]:  12126.76
	Linear fluid (dielectric constant: 78.4, screening length: 8.12261 Bohr) occupying 0.721401 of unit cell:	Completed after 0 iterations at t[s]:  12159.08
	FillingsUpdate:  mu: -0.160200000  nElectrons: 216.980503  magneticMoment: [ Abs: 1.14614  Tot: +0.91609 ]
	SubspaceRotationAdjust: set factor to 0.0677
ElecMinimize: Iter:  33  G: -336.437558575679304  |grad|_K:  2.791e-08  alpha:  6.185e-01  linmin:  3.413e-06  t[s]:  12205.11
	Linear fluid (dielectric constant: 78.4, screening length: 8.12261 Bohr) occupying 0.721400 of unit cell:	Completed after 1 iterations at t[s]:  12244.35
	Linear fluid (dielectric constant: 78.4, screening length: 8.12261 Bohr) occupying 0.721400 of unit cell:	Completed after 0 iterations at t[s]:  12276.62
	FillingsUpdate:  mu: -0.160200000  nElectrons: 216.980079  magneticMoment: [ Abs: 1.14603  Tot: +0.91600 ]
	SubspaceRotationAdjust: set factor to 0.0649
ElecMinimize: Iter:  34  G: -336.437558623395660  |grad|_K:  2.641e-08  alpha:  3.840e-01  linmin: -1.612e-04  t[s]:  12322.57
	Linear fluid (dielectric constant: 78.4, screening length: 8.12261 Bohr) occupying 0.721400 of unit cell:	Completed after 1 iterations at t[s]:  12361.49
	Linear fluid (dielectric constant: 78.4, screening length: 8.12261 Bohr) occupying 0.721400 of unit cell:	Completed after 0 iterations at t[s]:  12393.73
	FillingsUpdate:  mu: -0.160200000  nElectrons: 216.980049  magneticMoment: [ Abs: 1.14623  Tot: +0.91621 ]
	SubspaceRotationAdjust: set factor to 0.093
ElecMinimize: Iter:  35  G: -336.437558665235599  |grad|_K:  1.928e-08  alpha:  3.184e-01  linmin: -8.107e-04  t[s]:  12439.75
ElecMinimize: Converged (|Delta G|<1.000000e-07 for 2 iters).
Setting wave functions to eigenvectors of Hamiltonian
Converging empty states (this may take a while): |deigs|: 1.251e-03
Single-point solvation energy estimate, DeltaG = -0.021455650842142

Computing DFT-D3 correction:
# coordination-number C 3.298 3.320 3.331 3.329 3.310 3.286 3.320 3.576 3.325 3.310 3.298 3.316 3.299 3.298 3.320 3.534 3.261 3.298 3.316 3.332 3.325 3.299 3.299 3.325 3.331 3.316 3.298 3.261 3.576 3.320 3.298 3.299 3.320 3.298 3.310 3.326 3.533 3.316 3.286 3.310 3.329 3.331 3.320 3.298 1.126
# coordination-number N 3.172 3.168 3.172 3.168
# coordination-number Ti 5.396
# coordination-number O 1.003
# diagonal-C6 C 24.30 24.08 23.96 23.99 24.18 24.41 24.08 20.58 24.03 24.18 24.30 24.12 24.29 24.30 24.08 21.15 24.62 24.31 24.12 23.96 24.02 24.29 24.29 24.03 23.96 24.12 24.30 24.62 20.58 24.08 24.30 24.29 24.08 24.30 24.18 24.02 21.15 24.12 24.41 24.19 23.99 23.96 24.08 24.31 42.53
# diagonal-C6 N 15.60 15.60 15.60 15.60
# diagonal-C6 Ti 321.59
# diagonal-C6 O 12.81
EvdW_6 =   -0.037591
EvdW_8 =   -0.030186
Completed 1 of 7 configurations.

Computing DFT-D3 correction:
# coordination-number C 3.298 3.320 3.331 3.329 3.310 3.286 3.320 3.576 3.325 3.310 3.298 3.316 3.299 3.298 3.320 3.534 3.261 3.298 3.316 3.332 3.325 3.299 3.299 3.325 3.331 3.316 3.298 3.261 3.576 3.320 3.298 3.299 3.320 3.298 3.310 3.326 3.533 3.316 3.286 3.310 3.329 3.331 3.320 3.298 1.126
# coordination-number N 3.172 3.168 3.172 3.168
# coordination-number Ti 5.396
# coordination-number O 1.003
# diagonal-C6 C 24.30 24.08 23.96 23.99 24.18 24.41 24.08 20.58 24.03 24.18 24.30 24.12 24.29 24.30 24.08 21.15 24.62 24.31 24.12 23.96 24.02 24.29 24.29 24.03 23.96 24.12 24.30 24.62 20.58 24.08 24.30 24.29 24.08 24.30 24.18 24.02 21.15 24.12 24.41 24.19 23.99 23.96 24.08 24.31 42.53
# diagonal-C6 N 15.60 15.60 15.60 15.60
# diagonal-C6 Ti 321.59
# diagonal-C6 O 12.81
EvdW_6 =   -0.037591
EvdW_8 =   -0.030186
Shifting auxilliary hamiltonian by 0.000032 to set nElectrons=216.980049

-------- Electronic minimization -----------
	Linear fluid (dielectric constant: 78.4, screening length: 8.12261 Bohr) occupying 0.721399 of unit cell:	Completed after 6 iterations at t[s]:  13241.04
	FillingsUpdate:  mu: -0.160200000  nElectrons: 216.980049  magneticMoment: [ Abs: 1.14820  Tot: +0.91810 ]
ElecMinimize: Iter:   0  G: -336.437543442386811  |grad|_K:  3.369e-07  alpha:  1.000e+00
	Linear fluid (dielectric constant: 78.4, screening length: 8.12261 Bohr) occupying 0.721400 of unit cell:	Completed after 8 iterations at t[s]:  13335.85
	Linear fluid (dielectric constant: 78.4, screening length: 8.12261 Bohr) occupying 0.721399 of unit cell:	Completed after 7 iterations at t[s]:  13373.20
	FillingsUpdate:  mu: -0.160200000  nElectrons: 216.976257  magneticMoment: [ Abs: 1.14471  Tot: +0.91445 ]
	SubspaceRotationAdjust: set factor to 0.0696
ElecMinimize: Iter:   1  G: -336.437555038087453  |grad|_K:  2.693e-07  alpha:  4.980e-01  linmin:  1.784e-05  t[s]:  13419.60
	Linear fluid (dielectric constant: 78.4, screening length: 8.12261 Bohr) occupying 0.721402 of unit cell:	Completed after 8 iterations at t[s]:  13462.92
	Linear fluid (dielectric constant: 78.4, screening length: 8.12261 Bohr) occupying 0.721401 of unit cell:	Completed after 3 iterations at t[s]:  13497.81
	FillingsUpdate:  mu: -0.160200000  nElectrons: 216.978907  magneticMoment: [ Abs: 1.14695  Tot: +0.91675 ]
	SubspaceRotationAdjust: set factor to 0.0508
ElecMinimize: Iter:   2  G: -336.437558922113453  |grad|_K:  8.147e-08  alpha:  2.641e-01  linmin:  2.821e-04  t[s]:  13544.20
	Linear fluid (dielectric constant: 78.4, screening length: 8.12261 Bohr) occupying 0.721401 of unit cell:	Completed after 0 iterations at t[s]:  13582.57
ElecMinimize: 	Predicted alpha/alphaT>3.000000, increasing alphaT to 7.921853e-01.
	Linear fluid (dielectric constant: 78.4, screening length: 8.12261 Bohr) occupying 0.721401 of unit cell:	Completed after 1 iterations at t[s]:  13616.20
	Linear fluid (dielectric constant: 78.4, screening length: 8.12261 Bohr) occupying 0.721401 of unit cell:	Completed after 0 iterations at t[s]:  13648.62
	FillingsUpdate:  mu: -0.160200000  nElectrons: 216.979079  magneticMoment: [ Abs: 1.14695  Tot: +0.91673 ]
	SubspaceRotationAdjust: set factor to 0.0743
ElecMinimize: Iter:   3  G: -336.437560094216792  |grad|_K:  4.523e-08  alpha:  8.715e-01  linmin: -2.214e-04  t[s]:  13694.43
	Linear fluid (dielectric constant: 78.4, screening length: 8.12261 Bohr) occupying 0.721401 of unit cell:	Completed after 1 iterations at t[s]:  13733.34
	Linear fluid (dielectric constant: 78.4, screening length: 8.12261 Bohr) occupying 0.721401 of unit cell:	Completed after 0 iterations at t[s]:  13765.54
	FillingsUpdate:  mu: -0.160200000  nElectrons: 216.979107  magneticMoment: [ Abs: 1.14685  Tot: +0.91660 ]
	SubspaceRotationAdjust: set factor to 0.0772
ElecMinimize: Iter:   4  G: -336.437560500802704  |grad|_K:  3.731e-08  alpha:  9.408e-01  linmin: -1.884e-04  t[s]:  13811.44
	Linear fluid (dielectric constant: 78.4, screening length: 8.12261 Bohr) occupying 0.721401 of unit cell:	Completed after 1 iterations at t[s]:  13850.51
	Linear fluid (dielectric constant: 78.4, screening length: 8.12261 Bohr) occupying 0.721401 of unit cell:	Completed after 1 iterations at t[s]:  13884.40
	FillingsUpdate:  mu: -0.160200000  nElectrons: 216.979087  magneticMoment: [ Abs: 1.14653  Tot: +0.91622 ]
	SubspaceRotationAdjust: set factor to 0.091
ElecMinimize: Iter:   5  G: -336.437560912124127  |grad|_K:  5.379e-08  alpha:  1.409e+00  linmin: -5.345e-05  t[s]:  13930.48
	Linear fluid (dielectric constant: 78.4, screening length: 8.12261 Bohr) occupying 0.721400 of unit cell:	Completed after 3 iterations at t[s]:  13970.69
	Linear fluid (dielectric constant: 78.4, screening length: 8.12261 Bohr) occupying 0.721401 of unit cell:	Completed after 0 iterations at t[s]:  14003.66
	FillingsUpdate:  mu: -0.160200000  nElectrons: 216.980354  magneticMoment: [ Abs: 1.14712  Tot: +0.91677 ]
	SubspaceRotationAdjust: set factor to 0.0822
ElecMinimize: Iter:   6  G: -336.437561557545791  |grad|_K:  6.532e-08  alpha:  9.921e-01  linmin:  9.333e-05  t[s]:  14049.73
	Linear fluid (dielectric constant: 78.4, screening length: 8.12261 Bohr) occupying 0.721399 of unit cell:	Completed after 3 iterations at t[s]:  14089.99
	Linear fluid (dielectric constant: 78.4, screening length: 8.12261 Bohr) occupying 0.721400 of unit cell:	Completed after 2 iterations at t[s]:  14124.20
	FillingsUpdate:  mu: -0.160200000  nElectrons: 216.980050  magneticMoment: [ Abs: 1.14651  Tot: +0.91609 ]
	SubspaceRotationAdjust: set factor to 0.0564
ElecMinimize: Iter:   7  G: -336.437561814010451  |grad|_K:  5.563e-08  alpha:  4.023e-01  linmin:  3.591e-05  t[s]:  14170.04
	Linear fluid (dielectric constant: 78.4, screening length: 8.12261 Bohr) occupying 0.721400 of unit cell:	Completed after 2 iterations at t[s]:  14209.60
	Linear fluid (dielectric constant: 78.4, screening length: 8.12261 Bohr) occupying 0.721400 of unit cell:	Completed after 0 iterations at t[s]:  14241.94
	FillingsUpdate:  mu: -0.160200000  nElectrons: 216.980643  magneticMoment: [ Abs: 1.14683  Tot: +0.91639 ]
	SubspaceRotationAdjust: set factor to 0.0595
ElecMinimize: Iter:   8  G: -336.437562047439599  |grad|_K:  3.095e-08  alpha:  3.871e-01  linmin: -5.322e-05  t[s]:  14288.19
	Linear fluid (dielectric constant: 78.4, screening length: 8.12261 Bohr) occupying 0.721399 of unit cell:	Completed after 0 iterations at t[s]:  14325.79
	Linear fluid (dielectric constant: 78.4, screening length: 8.12261 Bohr) occupying 0.721399 of unit cell:	Completed after 0 iterations at t[s]:  14358.26
	FillingsUpdate:  mu: -0.160200000  nElectrons: 216.980967  magneticMoment: [ Abs: 1.14704  Tot: +0.91660 ]
	SubspaceRotationAdjust: set factor to 0.0607
ElecMinimize: Iter:   9  G: -336.437562188743641  |grad|_K:  2.161e-08  alpha:  6.938e-01  linmin: -1.866e-06  t[s]:  14404.06
	Linear fluid (dielectric constant: 78.4, screening length: 8.12261 Bohr) occupying 0.721398 of unit cell:	Completed after 0 iterations at t[s]:  14441.73
	Linear fluid (dielectric constant: 78.4, screening length: 8.12261 Bohr) occupying 0.721398 of unit cell:	Completed after 0 iterations at t[s]:  14474.09
	FillingsUpdate:  mu: -0.160200000  nElectrons: 216.981147  magneticMoment: [ Abs: 1.14721  Tot: +0.91676 ]
	SubspaceRotationAdjust: set factor to 0.0672
ElecMinimize: Iter:  10  G: -336.437562245981667  |grad|_K:  1.294e-08  alpha:  6.002e-01  linmin: -1.863e-07  t[s]:  14519.93
	Linear fluid (dielectric constant: 78.4, screening length: 8.12261 Bohr) occupying 0.721398 of unit cell:	Completed after 1 iterations at t[s]:  14558.91
	Linear fluid (dielectric constant: 78.4, screening length: 8.12261 Bohr) occupying 0.721398 of unit cell:	Completed after 0 iterations at t[s]:  14591.34
ElecMinimize: 	Step increased G by 3.386043e-08, reducing alpha to 1.438133e-02.
	Linear fluid (dielectric constant: 78.4, screening length: 8.12261 Bohr) occupying 0.721398 of unit cell:	Completed after 0 iterations at t[s]:  14666.38
ElecMinimize: 	Step increased G by 3.428244e-08, reducing alpha to 1.438133e-03.
	Linear fluid (dielectric constant: 78.4, screening length: 8.12261 Bohr) occupying 0.721398 of unit cell:	Completed after 0 iterations at t[s]:  14741.39
ElecMinimize: 	Step increased G by 3.440414e-08, reducing alpha to 1.438133e-04.
ElecMinimize: 	Step failed to reduce G after 3 attempts. Quitting step.
ElecMinimize: 	Undoing step.
	Linear fluid (dielectric constant: 78.4, screening length: 8.12261 Bohr) occupying 0.721398 of unit cell:	Completed after 0 iterations at t[s]:  14816.53
ElecMinimize: 	Step failed: resetting search direction.
	FillingsUpdate:  mu: -0.160200000  nElectrons: 216.981148  magneticMoment: [ Abs: 1.14721  Tot: +0.91676 ]
	SubspaceRotationAdjust: set factor to 0.0496
ElecMinimize: Iter:  11  G: -336.437562211576676  |grad|_K:  2.697e-08  alpha:  1.438e-04
[...]
disp C   0.000000000000000   0.000000000000000   0.000000000000000
disp C   0.000000000000000   0.000000000000000   0.000000000000000
disp C   0.000000000000000   0.000000000000000   0.000000000000000
disp C   0.000000000000000   0.000000000000000   0.000000000000000
disp C   0.000000000000000   0.000000000000000   0.000000000000000
disp C   0.000000000000000   0.000000000000000   0.000000000000000
disp C   0.000000000000000   0.000000000000000   0.000000000000000
disp C   0.000000000000000   0.000000000000000   0.000000000000000
disp C   0.000000000000000   0.000000000000000   0.000000000000000
disp C   0.000000000000000   0.000000000000000   0.000000000000000
disp C   0.000000000000000   0.000000000000000   0.000000000000000
disp C   0.000000000000000   0.000000000000000   0.000000000000000
disp C   0.000000000000000   0.000000000000000   0.000000000000000
disp C   0.000000000000000   0.000000000000000   0.000000000000000
disp C   0.000000000000000   0.000000000000000   0.000000000000000
disp C   0.000000000000000   0.000000000000000   0.000000000000000
disp C   0.000000000000000   0.000000000000000   0.000000000000000
disp C   0.000000000000000   0.000000000000000   0.000000000000000
disp C   0.000000000000000   0.000000000000000   0.000000000000000
disp C   0.000000000000000   0.000000000000000   0.000000000000000
disp C  -0.002968361715585  -0.005279122885083  -0.001911748065936
disp N   0.000000000000000   0.000000000000000   0.000000000000000
disp N   0.000000000000000   0.000000000000000   0.000000000000000
disp N   0.000000000000000   0.000000000000000   0.000000000000000
disp N   0.000000000000000   0.000000000000000   0.000000000000000
disp Ti   0.000000000000000   0.000000000000000   0.000000000000000
disp O   0.000226811654683   0.000234761791192  -0.001975042181389

Imaginary mode 3:
Frequency: 0.000886i Eh [ 194i cm^-1 ]
Degeneracy: 1 of 1
IR intensity: 1.2322 e^2/amu [ 1201.3 km/mol ]
Displacements:
disp C   0.000000000000000   0.000000000000000   0.000000000000000
disp C   0.000000000000000   0.000000000000000   0.000000000000000
disp C   0.000000000000000   0.000000000000000   0.000000000000000
disp C   0.000000000000000   0.000000000000000   0.000000000000000
disp C   0.000000000000000   0.000000000000000   0.000000000000000
disp C   0.000000000000000   0.000000000000000   0.000000000000000
disp C   0.000000000000000   0.000000000000000   0.000000000000000
disp C   0.000000000000000   0.000000000000000   0.000000000000000
disp C   0.000000000000000   0.000000000000000   0.000000000000000
disp C   0.000000000000000   0.000000000000000   0.000000000000000
disp C   0.000000000000000   0.000000000000000   0.000000000000000
disp C   0.000000000000000   0.000000000000000   0.000000000000000
disp C   0.000000000000000   0.000000000000000   0.000000000000000
disp C   0.000000000000000   0.000000000000000   0.000000000000000
disp C   0.000000000000000   0.000000000000000   0.000000000000000
disp C   0.000000000000000   0.000000000000000   0.000000000000000
disp C   0.000000000000000   0.000000000000000   0.000000000000000
disp C   0.000000000000000   0.000000000000000   0.000000000000000
disp C   0.000000000000000   0.000000000000000   0.000000000000000
disp C   0.000000000000000   0.000000000000000   0.000000000000000
disp C   0.000000000000000   0.000000000000000   0.000000000000000
disp C   0.000000000000000   0.000000000000000   0.000000000000000
disp C   0.000000000000000   0.000000000000000   0.000000000000000
disp C   0.000000000000000   0.000000000000000   0.000000000000000
disp C   0.000000000000000   0.000000000000000   0.000000000000000
disp C   0.000000000000000   0.000000000000000   0.000000000000000
disp C   0.000000000000000   0.000000000000000   0.000000000000000
disp C   0.000000000000000   0.000000000000000   0.000000000000000
disp C   0.000000000000000   0.000000000000000   0.000000000000000
disp C   0.000000000000000   0.000000000000000   0.000000000000000
disp C   0.000000000000000   0.000000000000000   0.000000000000000
disp C   0.000000000000000   0.000000000000000   0.000000000000000
disp C   0.000000000000000   0.000000000000000   0.000000000000000
disp C   0.000000000000000   0.000000000000000   0.000000000000000
disp C   0.000000000000000   0.000000000000000   0.000000000000000
disp C   0.000000000000000   0.000000000000000   0.000000000000000
disp C   0.000000000000000   0.000000000000000   0.000000000000000
disp C   0.000000000000000   0.000000000000000   0.000000000000000
disp C   0.000000000000000   0.000000000000000   0.000000000000000
disp C   0.000000000000000   0.000000000000000   0.000000000000000
disp C   0.000000000000000   0.000000000000000   0.000000000000000
disp C   0.000000000000000   0.000000000000000   0.000000000000000
disp C   0.000000000000000   0.000000000000000   0.000000000000000
disp C   0.000000000000000   0.000000000000000   0.000000000000000
disp C  -0.002615688464144  -0.001836310571475   0.003871131285844
disp N   0.000000000000000   0.000000000000000   0.000000000000000
disp N   0.000000000000000   0.000000000000000   0.000000000000000
disp N   0.000000000000000   0.000000000000000   0.000000000000000
disp N   0.000000000000000   0.000000000000000   0.000000000000000
disp Ti   0.000000000000000   0.000000000000000   0.000000000000000
disp O  -0.000190518979180   0.000589549519165   0.003871174452579

Real mode 1:
Frequency: 0.000279 Eh [ 61 cm^-1 ]
Degeneracy: 1 of 1
IR intensity: 0.0278 e^2/amu [ 27.1 km/mol ]
Displacements:
disp C   0.000000000000000   0.000000000000000   0.000000000000000
disp C   0.000000000000000   0.000000000000000   0.000000000000000
disp C   0.000000000000000   0.000000000000000   0.000000000000000
disp C   0.000000000000000   0.000000000000000   0.000000000000000
disp C   0.000000000000000   0.000000000000000   0.000000000000000
disp C   0.000000000000000   0.000000000000000   0.000000000000000
disp C   0.000000000000000   0.000000000000000   0.000000000000000
disp C   0.000000000000000   0.000000000000000   0.000000000000000
disp C   0.000000000000000   0.000000000000000   0.000000000000000
disp C   0.000000000000000   0.000000000000000   0.000000000000000
disp C   0.000000000000000   0.000000000000000   0.000000000000000
disp C   0.000000000000000   0.000000000000000   0.000000000000000
disp C   0.000000000000000   0.000000000000000   0.000000000000000
disp C   0.000000000000000   0.000000000000000   0.000000000000000
disp C   0.000000000000000   0.000000000000000   0.000000000000000
disp C   0.000000000000000   0.000000000000000   0.000000000000000
disp C   0.000000000000000   0.000000000000000   0.000000000000000
disp C   0.000000000000000   0.000000000000000   0.000000000000000
disp C   0.000000000000000   0.000000000000000   0.000000000000000
disp C   0.000000000000000   0.000000000000000   0.000000000000000
disp C   0.000000000000000   0.000000000000000   0.000000000000000
disp C   0.000000000000000   0.000000000000000   0.000000000000000
disp C   0.000000000000000   0.000000000000000   0.000000000000000
disp C   0.000000000000000   0.000000000000000   0.000000000000000
disp C   0.000000000000000   0.000000000000000   0.000000000000000
disp C   0.000000000000000   0.000000000000000   0.000000000000000
disp C   0.000000000000000   0.000000000000000   0.000000000000000
disp C   0.000000000000000   0.000000000000000   0.000000000000000
disp C   0.000000000000000   0.000000000000000   0.000000000000000
disp C   0.000000000000000   0.000000000000000   0.000000000000000
disp C   0.000000000000000   0.000000000000000   0.000000000000000
disp C   0.000000000000000   0.000000000000000   0.000000000000000
disp C   0.000000000000000   0.000000000000000   0.000000000000000
disp C   0.000000000000000   0.000000000000000   0.000000000000000
disp C   0.000000000000000   0.000000000000000   0.000000000000000
disp C   0.000000000000000   0.000000000000000   0.000000000000000
disp C   0.000000000000000   0.000000000000000   0.000000000000000
disp C   0.000000000000000   0.000000000000000   0.000000000000000
disp C   0.000000000000000   0.000000000000000   0.000000000000000
disp C   0.000000000000000   0.000000000000000   0.000000000000000
disp C   0.000000000000000   0.000000000000000   0.000000000000000
disp C   0.000000000000000   0.000000000000000   0.000000000000000
disp C   0.000000000000000   0.000000000000000   0.000000000000000
disp C   0.000000000000000   0.000000000000000   0.000000000000000
disp C   0.000521086082675   0.000087520510537   0.000077543610310
disp N   0.000000000000000   0.000000000000000   0.000000000000000
disp N   0.000000000000000   0.000000000000000   0.000000000000000
disp N   0.000000000000000   0.000000000000000   0.000000000000000
disp N   0.000000000000000   0.000000000000000   0.000000000000000
disp Ti   0.000000000000000   0.000000000000000   0.000000000000000
disp O   0.005205921758335   0.002638827710043   0.000091608391063

Real mode 2:
Frequency: 0.000711 Eh [ 156 cm^-1 ]
Degeneracy: 1 of 1
IR intensity: 0.2308 e^2/amu [ 225.0 km/mol ]
Displacements:
disp C   0.000000000000000   0.000000000000000   0.000000000000000
disp C   0.000000000000000   0.000000000000000   0.000000000000000
disp C   0.000000000000000   0.000000000000000   0.000000000000000
disp C   0.000000000000000   0.000000000000000   0.000000000000000
disp C   0.000000000000000   0.000000000000000   0.000000000000000
disp C   0.000000000000000   0.000000000000000   0.000000000000000
disp C   0.000000000000000   0.000000000000000   0.000000000000000
disp C   0.000000000000000   0.000000000000000   0.000000000000000
disp C   0.000000000000000   0.000000000000000   0.000000000000000
disp C   0.000000000000000   0.000000000000000   0.000000000000000
disp C   0.000000000000000   0.000000000000000   0.000000000000000
disp C   0.000000000000000   0.000000000000000   0.000000000000000
disp C   0.000000000000000   0.000000000000000   0.000000000000000
disp C   0.000000000000000   0.000000000000000   0.000000000000000
disp C   0.000000000000000   0.000000000000000   0.000000000000000
disp C   0.000000000000000   0.000000000000000   0.000000000000000
disp C   0.000000000000000   0.000000000000000   0.000000000000000
disp C   0.000000000000000   0.000000000000000   0.000000000000000
disp C   0.000000000000000   0.000000000000000   0.000000000000000
disp C   0.000000000000000   0.000000000000000   0.000000000000000
disp C   0.000000000000000   0.000000000000000   0.000000000000000
disp C   0.000000000000000   0.000000000000000   0.000000000000000
disp C   0.000000000000000   0.000000000000000   0.000000000000000
disp C   0.000000000000000   0.000000000000000   0.000000000000000
disp C   0.000000000000000   0.000000000000000   0.000000000000000
disp C   0.000000000000000   0.000000000000000   0.000000000000000
disp C   0.000000000000000   0.000000000000000   0.000000000000000
disp C   0.000000000000000   0.000000000000000   0.000000000000000
disp C   0.000000000000000   0.000000000000000   0.000000000000000
disp C   0.000000000000000   0.000000000000000   0.000000000000000
disp C   0.000000000000000   0.000000000000000   0.000000000000000
disp C   0.000000000000000   0.000000000000000   0.000000000000000
disp C   0.000000000000000   0.000000000000000   0.000000000000000
disp C   0.000000000000000   0.000000000000000   0.000000000000000
disp C   0.000000000000000   0.000000000000000   0.000000000000000
disp C   0.000000000000000   0.000000000000000   0.000000000000000
disp C   0.000000000000000   0.000000000000000   0.000000000000000
disp C   0.000000000000000   0.000000000000000   0.000000000000000
disp C   0.000000000000000   0.000000000000000   0.000000000000000
disp C   0.000000000000000   0.000000000000000   0.000000000000000
disp C   0.000000000000000   0.000000000000000   0.000000000000000
disp C   0.000000000000000   0.000000000000000   0.000000000000000
disp C   0.000000000000000   0.000000000000000   0.000000000000000
disp C   0.000000000000000   0.000000000000000   0.000000000000000
disp C  -0.001845340705793   0.001760510224761  -0.000651118180257
disp N   0.000000000000000   0.000000000000000   0.000000000000000
disp N   0.000000000000000   0.000000000000000   0.000000000000000
disp N   0.000000000000000   0.000000000000000   0.000000000000000
disp N   0.000000000000000   0.000000000000000   0.000000000000000
disp Ti   0.000000000000000   0.000000000000000   0.000000000000000
disp O  -0.002311109429877   0.004826711273013  -0.000669126159226

Real mode 3:
Frequency: 0.010068 Eh [ 2210 cm^-1 ]
Degeneracy: 1 of 1
IR intensity: 0.5062 e^2/amu [ 493.5 km/mol ]
Displacements:
disp C   0.000000000000000   0.000000000000000   0.000000000000000
disp C   0.000000000000000   0.000000000000000   0.000000000000000
disp C   0.000000000000000   0.000000000000000   0.000000000000000
disp C   0.000000000000000   0.000000000000000   0.000000000000000
disp C   0.000000000000000   0.000000000000000   0.000000000000000
disp C   0.000000000000000   0.000000000000000   0.000000000000000
disp C   0.000000000000000   0.000000000000000   0.000000000000000
disp C   0.000000000000000   0.000000000000000   0.000000000000000
disp C   0.000000000000000   0.000000000000000   0.000000000000000
disp C   0.000000000000000   0.000000000000000   0.000000000000000
disp C   0.000000000000000   0.000000000000000   0.000000000000000
disp C   0.000000000000000   0.000000000000000   0.000000000000000
disp C   0.000000000000000   0.000000000000000   0.000000000000000
disp C   0.000000000000000   0.000000000000000   0.000000000000000
disp C   0.000000000000000   0.000000000000000   0.000000000000000
disp C   0.000000000000000   0.000000000000000   0.000000000000000
disp C   0.000000000000000   0.000000000000000   0.000000000000000
disp C   0.000000000000000   0.000000000000000   0.000000000000000
disp C   0.000000000000000   0.000000000000000   0.000000000000000
disp C   0.000000000000000   0.000000000000000   0.000000000000000
disp C   0.000000000000000   0.000000000000000   0.000000000000000
disp C   0.000000000000000   0.000000000000000   0.000000000000000
disp C   0.000000000000000   0.000000000000000   0.000000000000000
disp C   0.000000000000000   0.000000000000000   0.000000000000000
disp C   0.000000000000000   0.000000000000000   0.000000000000000
disp C   0.000000000000000   0.000000000000000   0.000000000000000
disp C   0.000000000000000   0.000000000000000   0.000000000000000
disp C   0.000000000000000   0.000000000000000   0.000000000000000
disp C   0.000000000000000   0.000000000000000   0.000000000000000
disp C   0.000000000000000   0.000000000000000   0.000000000000000
disp C   0.000000000000000   0.000000000000000   0.000000000000000
disp C   0.000000000000000   0.000000000000000   0.000000000000000
disp C   0.000000000000000   0.000000000000000   0.000000000000000
disp C   0.000000000000000   0.000000000000000   0.000000000000000
disp C   0.000000000000000   0.000000000000000   0.000000000000000
disp C   0.000000000000000   0.000000000000000   0.000000000000000
disp C   0.000000000000000   0.000000000000000   0.000000000000000
disp C   0.000000000000000   0.000000000000000   0.000000000000000
disp C   0.000000000000000   0.000000000000000   0.000000000000000
disp C   0.000000000000000   0.000000000000000   0.000000000000000
disp C   0.000000000000000   0.000000000000000   0.000000000000000
disp C   0.000000000000000   0.000000000000000   0.000000000000000
disp C   0.000000000000000   0.000000000000000   0.000000000000000
disp C   0.000000000000000   0.000000000000000   0.000000000000000
disp C  -0.000015476311385  -0.000040545827370  -0.005121610544540
disp N   0.000000000000000   0.000000000000000   0.000000000000000
disp N   0.000000000000000   0.000000000000000   0.000000000000000
disp N   0.000000000000000   0.000000000000000   0.000000000000000
disp N   0.000000000000000   0.000000000000000   0.000000000000000
disp Ti   0.000000000000000   0.000000000000000   0.000000000000000
disp O  -0.000013833975507   0.000010959588441   0.003820191532321

Vibrational free energy components at T = 298 K:
	ZPE:          0.005529
	Evib:         0.006973
	TSvib:        0.003329
	Avib:         0.003644


Dumping 'jdft.n_up' ... done
Dumping 'jdft.n_dn' ... done
Dumping 'jdft.tau_up' ... done
Dumping 'jdft.tau_dn' ... done
Dumping 'jdft.eigenvals' ... done
Dumping 'jdft.eigStats' ... 
	eMin: -2.296861 at state 1 ( [ +0.000000 +0.333333 +0.000000 ] spin 1 )
	HOMO: -0.161637 at state 2 ( [ +0.000000 -0.333333 +0.000000 ] spin 1 )
	mu  : -0.160200
	LUMO: -0.159404 at state 8 ( [ -0.333333 -0.333333 +0.000000 ] spin 1 )
	eMax: +0.009662 at state 9 ( [ +0.000000 +0.000000 +0.000000 ] spin -1 )
	HOMO-LUMO gap: +0.002233
	Optical gap  : +0.005955 at state 8 ( [ -0.333333 -0.333333 +0.000000 ] spin 1 )
Dumping 'jdft.kPts' ... done
Dumping 'jdft.dosUp' ... done.
Dumping 'jdft.dosDn' ... done.
End date and time: Wed Nov 23 00:28:56 2022  (Duration: 0-6:37:22.62)
Done!

PROFILER:             augmentDensityGrid     0.702022 +/-     0.805982 s, 1496 calls,   1050.224852 s total
PROFILER:         augmentDensityGridGrad     0.478952 +/-     0.538250 s,  784 calls,    375.498055 s total
PROFILER:        augmentDensitySpherical     0.000424 +/-     0.000539 s, 1496 calls,      0.633852 s total
PROFILER:    augmentDensitySphericalGrad     0.000426 +/-     0.000573 s, 1064 calls,      0.453047 s total
PROFILER:                 augmentOverlap     1.518201 +/-     2.067020 s, 2964 calls,   4499.946866 s total
PROFILER:        ColumnBundle::randomize     0.004893 +/-     0.000000 s,    1 calls,      0.004893 s total
PROFILER:                     diagouterI    15.103654 +/-     3.229017 s,  377 calls,   5694.077492 s total
PROFILER:              EdensityAndVscloc     6.056492 +/-     4.625529 s,  375 calls,   2271.184684 s total
PROFILER:                     EnlAndGrad     0.001214 +/-     0.001811 s, 1524 calls,      1.850841 s total
PROFILER:            ExCorrCommunication     0.054526 +/-     0.051896 s, 2329 calls,    126.992122 s total
PROFILER:               ExCorrFunctional     0.023929 +/-     0.003983 s,  397 calls,      9.499930 s total
PROFILER:                    ExCorrTotal     0.588259 +/-     0.097059 s,  397 calls,    233.538794 s total
PROFILER:                   Idag_DiagV_I    24.317744 +/-    11.845022 s,  259 calls,   6298.295678 s total
PROFILER:                    initWeights     1.788377 +/-     0.000000 s,    1 calls,      1.788377 s total
PROFILER:                    inv(matrix)     0.001690 +/-     0.000706 s,  302 calls,      0.510488 s total
PROFILER:            matrix::diagonalize     0.007447 +/-     0.004578 s,  621 calls,      4.624752 s total
PROFILER:                    matrix::set     0.000002 +/-     0.000003 s, 33567 calls,      0.076480 s total
PROFILER:            orthoMatrix(matrix)     0.001222 +/-     0.000596 s,  366 calls,      0.447283 s total
PROFILER:     RadialFunctionR::transform     0.002729 +/-     0.013160 s,  141 calls,      0.384790 s total
PROFILER:                    reduceKmesh     0.000000 +/-     0.000000 s,    1 calls,      0.000000 s total
PROFILER:   VanDerWaalsD3::energyAndGrad     0.028456 +/-     0.000788 s,   15 calls,      0.426834 s total
PROFILER:               WavefunctionDrag    24.429897 +/-     0.281157 s,    7 calls,    171.009281 s total
PROFILER:                            Y*M     0.671586 +/-     0.801525 s, 5545 calls,   3723.946952 s total
PROFILER:                          Y1^Y2     0.659042 +/-     0.812201 s, 3968 calls,   2615.077457 s total

MEMUSAGE:                   ColumnBundle     1.307997 GB
MEMUSAGE:        complexScalarFieldTilde     0.049438 GB
MEMUSAGE:                    IndexArrays     0.023178 GB
MEMUSAGE:                         matrix     0.020559 GB
MEMUSAGE:                           misc     0.050872 GB
MEMUSAGE:                    ScalarField     0.395508 GB
MEMUSAGE:               ScalarFieldTilde     0.262436 GB
MEMUSAGE:                          Total     1.624364 GB
