
*************** JDFTx 1.7.0 (git hash 5f12716a) ***************

Start date and time: Wed Nov  9 13:08:49 2022
Executable /home/nisi6161/jdftx_alpine/build/jdftx with command-line: -i in
Running on hosts (process indices):  c3cpu-c11-u3-3.rc.int.colorado.edu (0-17)
Divided in process groups (process indices):  0 (0)  1 (1)  2 (2)  3 (3)  4 (4)  5 (5)  6 (6)  7 (7)  8 (8)  9 (9)  10 (10)  11 (11)  12 (12)  13 (13)  14 (14)  15 (15)  16 (16)  17 (17)
Resource initialization completed at t[s]:      0.19
Run totals: 18 processes, 48 threads, 0 GPUs


Input parsed successfully to the following command list (including defaults):

basis kpoint-dependent
converge-empty-states yes
coords-type Cartesian
core-overlap-check none
coulomb-interaction Periodic
davidson-band-ratio 1.1
density-of-states Etol 1.000000e-06 Esigma 1.000000e-03 \
		Complete \
	Total \
	OrthoOrbital C 1   s \
	OrthoOrbital C 1   p \
	OrthoOrbital C 1   px \
	OrthoOrbital C 1   py \
	OrthoOrbital C 1   pz \
	OrthoOrbital C 2   s \
	OrthoOrbital C 2   p \
	OrthoOrbital C 2   px \
	OrthoOrbital C 2   py \
	OrthoOrbital C 2   pz \
	OrthoOrbital C 3   s \
	OrthoOrbital C 3   p \
	OrthoOrbital C 3   px \
	OrthoOrbital C 3   py \
	OrthoOrbital C 3   pz \
	OrthoOrbital C 4   s \
	OrthoOrbital C 4   p \
	OrthoOrbital C 4   px \
	OrthoOrbital C 4   py \
	OrthoOrbital C 4   pz \
	OrthoOrbital C 5   s \
	OrthoOrbital C 5   p \
	OrthoOrbital C 5   px \
	OrthoOrbital C 5   py \
	OrthoOrbital C 5   pz \
	OrthoOrbital C 6   s \
	OrthoOrbital C 6   p \
	OrthoOrbital C 6   px \
	OrthoOrbital C 6   py \
	OrthoOrbital C 6   pz \
	OrthoOrbital C 7   s \
	OrthoOrbital C 7   p \
	OrthoOrbital C 7   px \
	OrthoOrbital C 7   py \
	OrthoOrbital C 7   pz \
	OrthoOrbital C 8   s \
	OrthoOrbital C 8   p \
	OrthoOrbital C 8   px \
	OrthoOrbital C 8   py \
	OrthoOrbital C 8   pz \
	OrthoOrbital C 9   s \
	OrthoOrbital C 9   p \
	OrthoOrbital C 9   px \
	OrthoOrbital C 9   py \
	OrthoOrbital C 9   pz \
	OrthoOrbital C 10   s \
	OrthoOrbital C 10   p \
	OrthoOrbital C 10   px \
	OrthoOrbital C 10   py \
	OrthoOrbital C 10   pz \
	OrthoOrbital C 11   s \
	OrthoOrbital C 11   p \
	OrthoOrbital C 11   px \
	OrthoOrbital C 11   py \
	OrthoOrbital C 11   pz \
	OrthoOrbital C 12   s \
	OrthoOrbital C 12   p \
	OrthoOrbital C 12   px \
	OrthoOrbital C 12   py \
	OrthoOrbital C 12   pz \
	OrthoOrbital C 13   s \
	OrthoOrbital C 13   p \
	OrthoOrbital C 13   px \
	OrthoOrbital C 13   py \
	OrthoOrbital C 13   pz \
	OrthoOrbital C 14   s \
	OrthoOrbital C 14   p \
	OrthoOrbital C 14   px \
	OrthoOrbital C 14   py \
	OrthoOrbital C 14   pz \
	OrthoOrbital C 15   s \
	OrthoOrbital C 15   p \
	OrthoOrbital C 15   px \
	OrthoOrbital C 15   py \
	OrthoOrbital C 15   pz \
	OrthoOrbital C 16   s \
	OrthoOrbital C 16   p \
	OrthoOrbital C 16   px \
	OrthoOrbital C 16   py \
	OrthoOrbital C 16   pz \
	OrthoOrbital C 17   s \
	OrthoOrbital C 17   p \
	OrthoOrbital C 17   px \
	OrthoOrbital C 17   py \
	OrthoOrbital C 17   pz \
	OrthoOrbital C 18   s \
	OrthoOrbital C 18   p \
	OrthoOrbital C 18   px \
	OrthoOrbital C 18   py \
	OrthoOrbital C 18   pz \
	OrthoOrbital C 19   s \
	OrthoOrbital C 19   p \
	OrthoOrbital C 19   px \
	OrthoOrbital C 19   py \
	OrthoOrbital C 19   pz \
	OrthoOrbital C 20   s \
	OrthoOrbital C 20   p \
	OrthoOrbital C 20   px \
	OrthoOrbital C 20   py \
	OrthoOrbital C 20   pz \
	OrthoOrbital C 21   s \
	OrthoOrbital C 21   p \
	OrthoOrbital C 21   px \
	OrthoOrbital C 21   py \
	OrthoOrbital C 21   pz \
	OrthoOrbital C 22   s \
	OrthoOrbital C 22   p \
	OrthoOrbital C 22   px \
	OrthoOrbital C 22   py \
	OrthoOrbital C 22   pz \
	OrthoOrbital C 23   s \
	OrthoOrbital C 23   p \
	OrthoOrbital C 23   px \
	OrthoOrbital C 23   py \
	OrthoOrbital C 23   pz \
	OrthoOrbital C 24   s \
	OrthoOrbital C 24   p \
	OrthoOrbital C 24   px \
	OrthoOrbital C 24   py \
	OrthoOrbital C 24   pz \
	OrthoOrbital C 25   s \
	OrthoOrbital C 25   p \
	OrthoOrbital C 25   px \
	OrthoOrbital C 25   py \
	OrthoOrbital C 25   pz \
	OrthoOrbital C 26   s \
	OrthoOrbital C 26   p \
	OrthoOrbital C 26   px \
	OrthoOrbital C 26   py \
	OrthoOrbital C 26   pz \
	OrthoOrbital C 27   s \
	OrthoOrbital C 27   p \
	OrthoOrbital C 27   px \
	OrthoOrbital C 27   py \
	OrthoOrbital C 27   pz \
	OrthoOrbital C 28   s \
	OrthoOrbital C 28   p \
	OrthoOrbital C 28   px \
	OrthoOrbital C 28   py \
	OrthoOrbital C 28   pz \
	OrthoOrbital C 29   s \
	OrthoOrbital C 29   p \
	OrthoOrbital C 29   px \
	OrthoOrbital C 29   py \
	OrthoOrbital C 29   pz \
	OrthoOrbital C 30   s \
	OrthoOrbital C 30   p \
	OrthoOrbital C 30   px \
	OrthoOrbital C 30   py \
	OrthoOrbital C 30   pz \
	OrthoOrbital C 31   s \
	OrthoOrbital C 31   p \
	OrthoOrbital C 31   px \
	OrthoOrbital C 31   py \
	OrthoOrbital C 31   pz \
	OrthoOrbital C 32   s \
	OrthoOrbital C 32   p \
	OrthoOrbital C 32   px \
	OrthoOrbital C 32   py \
	OrthoOrbital C 32   pz \
	OrthoOrbital C 33   s \
	OrthoOrbital C 33   p \
	OrthoOrbital C 33   px \
	OrthoOrbital C 33   py \
	OrthoOrbital C 33   pz \
	OrthoOrbital C 34   s \
	OrthoOrbital C 34   p \
	OrthoOrbital C 34   px \
	OrthoOrbital C 34   py \
	OrthoOrbital C 34   pz \
	OrthoOrbital C 35   s \
	OrthoOrbital C 35   p \
	OrthoOrbital C 35   px \
	OrthoOrbital C 35   py \
	OrthoOrbital C 35   pz \
	OrthoOrbital C 36   s \
	OrthoOrbital C 36   p \
	OrthoOrbital C 36   px \
	OrthoOrbital C 36   py \
	OrthoOrbital C 36   pz \
	OrthoOrbital C 37   s \
	OrthoOrbital C 37   p \
	OrthoOrbital C 37   px \
	OrthoOrbital C 37   py \
	OrthoOrbital C 37   pz \
	OrthoOrbital C 38   s \
	OrthoOrbital C 38   p \
	OrthoOrbital C 38   px \
	OrthoOrbital C 38   py \
	OrthoOrbital C 38   pz \
	OrthoOrbital C 39   s \
	OrthoOrbital C 39   p \
	OrthoOrbital C 39   px \
	OrthoOrbital C 39   py \
	OrthoOrbital C 39   pz \
	OrthoOrbital C 40   s \
	OrthoOrbital C 40   p \
	OrthoOrbital C 40   px \
	OrthoOrbital C 40   py \
	OrthoOrbital C 40   pz \
	OrthoOrbital C 41   s \
	OrthoOrbital C 41   p \
	OrthoOrbital C 41   px \
	OrthoOrbital C 41   py \
	OrthoOrbital C 41   pz \
	OrthoOrbital C 42   s \
	OrthoOrbital C 42   p \
	OrthoOrbital C 42   px \
	OrthoOrbital C 42   py \
	OrthoOrbital C 42   pz \
	OrthoOrbital C 43   s \
	OrthoOrbital C 43   p \
	OrthoOrbital C 43   px \
	OrthoOrbital C 43   py \
	OrthoOrbital C 43   pz \
	OrthoOrbital C 44   s \
	OrthoOrbital C 44   p \
	OrthoOrbital C 44   px \
	OrthoOrbital C 44   py \
	OrthoOrbital C 44   pz \
	OrthoOrbital C 45   s \
	OrthoOrbital C 45   p \
	OrthoOrbital C 45   px \
	OrthoOrbital C 45   py \
	OrthoOrbital C 45   pz \
	OrthoOrbital N 1   s \
	OrthoOrbital N 1   p \
	OrthoOrbital N 1   px \
	OrthoOrbital N 1   py \
	OrthoOrbital N 1   pz \
	OrthoOrbital N 2   s \
	OrthoOrbital N 2   p \
	OrthoOrbital N 2   px \
	OrthoOrbital N 2   py \
	OrthoOrbital N 2   pz \
	OrthoOrbital N 3   s \
	OrthoOrbital N 3   p \
	OrthoOrbital N 3   px \
	OrthoOrbital N 3   py \
	OrthoOrbital N 3   pz \
	OrthoOrbital N 4   s \
	OrthoOrbital N 4   p \
	OrthoOrbital N 4   px \
	OrthoOrbital N 4   py \
	OrthoOrbital N 4   pz \
	OrthoOrbital Ti 1   s \
	OrthoOrbital Ti 1   p \
	OrthoOrbital Ti 1   px \
	OrthoOrbital Ti 1   py \
	OrthoOrbital Ti 1   pz \
	OrthoOrbital Ti 1   d \
	OrthoOrbital Ti 1   dxy \
	OrthoOrbital Ti 1   dyz \
	OrthoOrbital Ti 1   dz2 \
	OrthoOrbital Ti 1   dxz \
	OrthoOrbital Ti 1   dx2-y2 \
	OrthoOrbital O 1   s \
	OrthoOrbital O 1   p \
	OrthoOrbital O 1   px \
	OrthoOrbital O 1   py \
	OrthoOrbital O 1   pz \
	OrthoOrbital O 2   s \
	OrthoOrbital O 2   p \
	OrthoOrbital O 2   px \
	OrthoOrbital O 2   py \
	OrthoOrbital O 2   pz \
	OrthoOrbital H 1   s \
	OrthoOrbital H 2   s
dump End ElecDensity KEdensity BandEigs EigStats RhoAtom DOS Kpoints
dump Ionic State IonicPositions Lattice EigStats Ecomponents
dump 
dump 
dump 
dump 
dump 
dump 
dump 
dump 
dump-name jdft.$VAR
elec-cutoff 20
elec-eigen-algo Davidson
elec-ex-corr gga-PBE
elec-initial-magnetization 0.000000 no
elec-n-bands 136
elec-smearing Fermi 0.001
electronic-minimize  \
	dirUpdateScheme      FletcherReeves \
	linminMethod         DirUpdateRecommended \
	nIterations          100 \
	history              15 \
	knormThreshold       0 \
	energyDiffThreshold  1e-07 \
	nEnergyDiff          2 \
	alphaTstart          1 \
	alphaTmin            1e-10 \
	updateTestStepSize   yes \
	alphaTreduceFactor   0.1 \
	alphaTincreaseFactor 3 \
	nAlphaAdjustMax      3 \
	wolfeEnergy          0.0001 \
	wolfeGradient        0.9 \
	fdTest               no
exchange-regularization WignerSeitzTruncated
fluid LinearPCM 298.000000 1.013250
fluid-anion F- 0.5 MeanFieldLJ \
	epsBulk 1 \
	pMol 0 \
	epsInf 1 \
	Pvap 0 \
	sigmaBulk 0 \
	Rvdw 2.24877 \
	Res 0 \
	tauNuc 343133
fluid-cation Na+ 0.5 MeanFieldLJ \
	epsBulk 1 \
	pMol 0 \
	epsInf 1 \
	Pvap 0 \
	sigmaBulk 0 \
	Rvdw 2.19208 \
	Res 0 \
	tauNuc 343133
fluid-ex-corr lda-TF lda-PZ
fluid-gummel-loop 10 1.000000e-05
fluid-minimize  \
	dirUpdateScheme      PolakRibiere \
	linminMethod         DirUpdateRecommended \
	nIterations          400 \
	history              15 \
	knormThreshold       1e-11 \
	energyDiffThreshold  0 \
	nEnergyDiff          2 \
	alphaTstart          1 \
	alphaTmin            1e-10 \
	updateTestStepSize   yes \
	alphaTreduceFactor   0.1 \
	alphaTincreaseFactor 3 \
	nAlphaAdjustMax      6 \
	wolfeEnergy          0.0001 \
	wolfeGradient        0.9 \
	fdTest               no
fluid-solvent H2O 55.338 ScalarEOS \
	epsBulk 78.4 \
	pMol 0.92466 \
	epsInf 1.77 \
	Pvap 1.06736e-10 \
	sigmaBulk 4.62e-05 \
	Rvdw 2.61727 \
	Res 1.42 \
	tauNuc 343133 \
	poleEl 15 7 1
forces-output-coords Positions
ion C  -0.000897000000000   0.191089000000000   0.037633000000000 0
ion C  -2.393867000000001   4.122543000000001   0.027468000000000 0
ion C  -4.739586000000001   8.126036000000001  43.161884000000008 0
ion C  -7.047971000000003  12.145619000000003  43.146918000000007 0
ion C  -9.372293000000001  16.163872000000001  43.225904000000007 0
ion C   4.681404000000000   0.295475000000000   0.061510000000000 0
ion C   2.293707000000000   4.317870000000001   0.201488000000000 0
ion C  -0.123494000000001   8.125251000000004   0.167748000000000 0
ion C  -2.434483000000000  12.132242000000000   0.007483000000000 0
ion C  -4.726708000000001  16.165404000000002  43.249478000000011 0
ion C   9.373811999999997   0.177458000000000   0.020244000000000 0
ion C   7.081659000000000   4.283899000000000   0.132754000000000 0
ion C  -0.030110000000001  16.053774000000008   0.105113000000000 0
ion C  14.073785000000003   0.080813000000000   0.053335000000000 0
ion C  11.751517000000002   4.126620000000001  43.249003000000009 0
ion C   9.461842999999998   8.118625000000002   0.078424000000000 0
ion C   4.668927999999999  15.923372000000002   0.186608000000000 0
ion C  18.726676000000005   0.089493000000000   0.042521000000000 0
ion C  16.396176000000001   4.112191000000001  43.216301000000009 0
ion C  14.088078000000003   8.138217000000001  43.158856000000007 0
ion C  11.775133000000004  12.144150000000002  43.209077000000008 0
ion C   9.377035000000001  16.084598000000003   0.023921000000000 0
ion C  -0.013802000000000   2.880355000000001   0.079808000000000 0
ion C  -2.422228000000000   6.796914000000002   0.001384000000000 0
ion C  -4.743348000000003  10.796176000000004  43.158251000000007 0
ion C  -7.049010000000001  14.824878000000002  43.200253000000004 0
ion C  -9.375273000000000  18.853565000000003   0.025824000000000 0
ion C   4.680030000000001   3.013200000000001   0.154468000000000 0
ion C  -0.131723000000000  10.813064000000001   0.198590000000000 0
ion C  -2.404851000000000  14.805122000000004   0.037763000000000 0
ion C  -4.724015000000001  18.852667000000004   0.027122000000000 0
ion C   9.386246000000000   2.860279000000000   0.017605000000000 0
ion C   2.276423000000001  14.613896000000002   0.254563000000000 0
ion C  -0.017855000000001  18.741682000000004   0.050480000000000 0
ion C  14.075645000000002   2.769053000000000  43.250257000000005 0
ion C  11.777889999999999   6.801452000000001  43.232219000000008 0
ion C   9.462024000000000  10.826296000000001   0.049788000000000 0
ion C   7.073951000000001  14.652832000000002   0.123540000000000 0
ion C   4.667156000000000  18.641814000000004   0.091833000000000 0
ion C  18.723674000000003   2.777550000000001   0.000692000000000 0
ion C  16.394482000000000   6.790173000000001  43.155526000000009 0
ion C  14.087207999999999  10.811013000000003  43.152325000000005 0
ion C  11.744823999999999  14.820235000000002  43.227807000000006 0
ion C   9.361544000000000  18.769613000000003   0.030625000000000 0
ion C   3.282750000000000   7.662074000000001   5.121418000000001 1
ion N   2.145242999999999  12.014737000000004   0.468120000000000 0
ion N   7.187931999999997  12.061124000000003   0.188035000000000 0
ion N   2.175244999999999   6.930663000000001   0.394368000000000 0
ion N   7.190924000000000   6.870053000000002   0.277446000000000 0
ion Ti   4.829111000000001   9.461532000000002   1.849943000000000 0
ion O   2.208840000000000   6.672405000000001   6.736695000000001 1
ion O   7.245549000000002   3.079212000000001   5.766715000000000 1
ion H   8.469351000000000   3.466680000000001   7.106969000000002 1
ion H   6.108162000000001   1.844997000000000   6.557441000000001 1
ion-species /projects/musgravc/apps/jdftx-1.6.0/build/pseudopotentials/GBRV_v1.5/$ID_pbe_v1.uspp
ion-species /projects/musgravc/apps/jdftx-1.6.0/build/pseudopotentials/GBRV_v1.5/$ID_pbe_v1.2.uspp
ion-species /projects/musgravc/apps/jdftx-1.6.0/build/pseudopotentials/GBRV_v1.5/$ID_pbe_v1.4.uspp
ion-species /projects/musgravc/apps/jdftx-1.6.0/build/pseudopotentials/GBRV_v1.5/$ID_pbe_v1.5.uspp
ion-width Ecut
ionic-minimize  \
	dirUpdateScheme      L-BFGS \
	linminMethod         DirUpdateRecommended \
	nIterations          100 \
	history              15 \
	knormThreshold       0.0001 \
	energyDiffThreshold  0.0001 \
	nEnergyDiff          2 \
	alphaTstart          1 \
	alphaTmin            1e-10 \
	updateTestStepSize   yes \
	alphaTreduceFactor   0.1 \
	alphaTincreaseFactor 3 \
	nAlphaAdjustMax      3 \
	wolfeEnergy          0.0001 \
	wolfeGradient        0.9 \
	fdTest               no
kpoint   0.000000000000   0.000000000000   0.000000000000  1.00000000000000
kpoint-folding 3 3 1 
latt-move-scale 0 0 0
latt-scale 1 1 1 
lattice  \
	  23.436261999999999  -11.733459000000000    0.000000000000000  \
	   0.017994000000000   19.941849000000001    0.000000000000000  \
	   0.000000000000000    0.000000000000000   43.256312999999999 
lattice-minimize  \
	dirUpdateScheme      L-BFGS \
	linminMethod         DirUpdateRecommended \
	nIterations          0 \
	history              15 \
	knormThreshold       0 \
	energyDiffThreshold  1e-06 \
	nEnergyDiff          2 \
	alphaTstart          1 \
	alphaTmin            1e-10 \
	updateTestStepSize   yes \
	alphaTreduceFactor   0.1 \
	alphaTincreaseFactor 3 \
	nAlphaAdjustMax      3 \
	wolfeEnergy          0.0001 \
	wolfeGradient        0.9 \
	fdTest               no
lcao-params 30 1e-06 0.001
pcm-variant CANDLE
spintype z-spin
subspace-rotation-factor 1 yes
symmetries none
symmetry-threshold 0.0001
target-mu -0.1602 no

van-der-waals D3
vibrations \
	dr 0.01\
	centralDiff no\
	useConstraints yes\
	translationSym yes\
	rotationSym no\
	omegaMin 0.0002\
	T 298\
	omegaResolution 0.0001


Applied RMS atom displacement 0 bohrs to make symmetries exact.
Applied RMS atom displacement 0 bohrs to make symmetries exact.

---------- Initializing the Grid ----------
R = 
[      23.4363     -11.7335            0  ]
[     0.017994      19.9418            0  ]
[            0            0      43.2563  ]
unit cell volume = 20225.5
G =
[   0.267976   0.157673         -0  ]
[ -0.000241801   0.314933          0  ]
[          0         -0   0.145255  ]
Minimum fftbox size, Smin = [  96  96  176  ]
Chosen fftbox size, S = [  96  96  180  ]

---------- Exchange Correlation functional ----------
Initalized PBE GGA exchange.
Initalized PBE GGA correlation.

---------- Setting up pseudopotentials ----------
Width of ionic core gaussian charges (only for fluid interactions / plotting) set to 0.397384

Reading pseudopotential file '/projects/musgravc/apps/jdftx-1.6.0/build/pseudopotentials/GBRV_v1.5/c_pbe_v1.2.uspp':
  Title: C.  Created by USPP 7.3.6 on 3-2-2014
  Reference state energy: -5.406344.  4 valence electrons in orbitals:
    |200>  occupation: 2  eigenvalue: -0.504890
    |210>  occupation: 2  eigenvalue: -0.194356
  lMax: 1  lLocal: 2  QijEcut: 5
  4 projectors sampled on a log grid with 503 points:
    l: 0  eig: -0.504890  rCut: 1.3
    l: 0  eig: 0.000000  rCut: 1.3
    l: 1  eig: -0.194357  rCut: 1.3
    l: 1  eig: 0.000000  rCut: 1.3
  Partial core density with radius 1.1
  Transforming core density to a uniform radial grid of dG=0.02 with 1464 points.
  Transforming local potential to a uniform radial grid of dG=0.02 with 1464 points.
  Transforming nonlocal projectors to a uniform radial grid of dG=0.02 with 432 points.
  Transforming density augmentations to a uniform radial grid of dG=0.02 with 1464 points.
  Transforming atomic orbitals to a uniform radial grid of dG=0.02 with 432 points.
  Core radius for overlap checks: 1.30 bohrs.

Reading pseudopotential file '/projects/musgravc/apps/jdftx-1.6.0/build/pseudopotentials/GBRV_v1.5/n_pbe_v1.2.uspp':
  Title: N.  Created by USPP 7.3.6 on 3-2-2014
  Reference state energy: -9.763716.  5 valence electrons in orbitals:
    |200>  occupation: 2  eigenvalue: -0.681964
    |210>  occupation: 3  eigenvalue: -0.260726
  lMax: 1  lLocal: 2  QijEcut: 6
  4 projectors sampled on a log grid with 491 points:
    l: 0  eig: -0.681964  rCut: 1.15
    l: 0  eig: 0.000000  rCut: 1.15
    l: 1  eig: -0.260729  rCut: 1.2
    l: 1  eig: 0.500000  rCut: 1.2
  Partial core density with radius 0.8
  Transforming core density to a uniform radial grid of dG=0.02 with 1464 points.
  Transforming local potential to a uniform radial grid of dG=0.02 with 1464 points.
  Transforming nonlocal projectors to a uniform radial grid of dG=0.02 with 432 points.
  Transforming density augmentations to a uniform radial grid of dG=0.02 with 1464 points.
  Transforming atomic orbitals to a uniform radial grid of dG=0.02 with 432 points.
  Core radius for overlap checks: 1.20 bohrs.

Reading pseudopotential file '/projects/musgravc/apps/jdftx-1.6.0/build/pseudopotentials/GBRV_v1.5/ti_pbe_v1.4.uspp':
  Title: Ti.  Created by USPP 7.3.6 on 31-3-15
  Reference state energy: -59.020943.  12 valence electrons in orbitals:
    |300>  occupation: 2  eigenvalue: -2.777623
    |310>  occupation: 6  eigenvalue: -1.894596
    |400>  occupation: 2  eigenvalue: -0.438610
    |320>  occupation: 1  eigenvalue: -0.583119
  lMax: 2  lLocal: 3  QijEcut: 6
  6 projectors sampled on a log grid with 597 points:
    l: 0  eig: -2.777624  rCut: 1.8
    l: 0  eig: -0.438611  rCut: 1.8
    l: 1  eig: -1.894596  rCut: 1.8
    l: 1  eig: 0.500000  rCut: 1.8
    l: 2  eig: -0.583118  rCut: 1.8
    l: 2  eig: 0.150000  rCut: 1.8
  Partial core density with radius 0.8
  Transforming core density to a uniform radial grid of dG=0.02 with 1464 points.
  Transforming local potential to a uniform radial grid of dG=0.02 with 1464 points.
  Transforming nonlocal projectors to a uniform radial grid of dG=0.02 with 432 points.
  Transforming density augmentations to a uniform radial grid of dG=0.02 with 1464 points.
  Transforming atomic orbitals to a uniform radial grid of dG=0.02 with 432 points.
  Core radius for overlap checks: 1.80 bohrs.

Reading pseudopotential file '/projects/musgravc/apps/jdftx-1.6.0/build/pseudopotentials/GBRV_v1.5/o_pbe_v1.2.uspp':
  Title: O.  Created by USPP 7.3.6 on 3-2-2014
  Reference state energy: -15.894388.  6 valence electrons in orbitals:
    |200>  occupation: 2  eigenvalue: -0.878823
    |210>  occupation: 4  eigenvalue: -0.332131
  lMax: 2  lLocal: 2  QijEcut: 6
  5 projectors sampled on a log grid with 511 points:
    l: 0  eig: -0.878823  rCut: 1.25
    l: 0  eig: 0.000000  rCut: 1.25
    l: 1  eig: -0.332132  rCut: 1.25
    l: 1  eig: 0.000000  rCut: 1.25
    l: 2  eig: 1.000000  rCut: 1.25
  Partial core density with radius 0.7
  Transforming core density to a uniform radial grid of dG=0.02 with 1464 points.
  Transforming local potential to a uniform radial grid of dG=0.02 with 1464 points.
  Transforming nonlocal projectors to a uniform radial grid of dG=0.02 with 432 points.
  Transforming density augmentations to a uniform radial grid of dG=0.02 with 1464 points.
  Transforming atomic orbitals to a uniform radial grid of dG=0.02 with 432 points.
  Core radius for overlap checks: 1.25 bohrs.

Reading pseudopotential file '/projects/musgravc/apps/jdftx-1.6.0/build/pseudopotentials/GBRV_v1.5/h_pbe_v1.4.uspp':
  Title: H.  Created by USPP 7.3.6 on 2-4-15
  Reference state energy: -0.458849.  1 valence electrons in orbitals:
    |100>  occupation: 1  eigenvalue: -0.238595
  lMax: 0  lLocal: 1  QijEcut: 6
  2 projectors sampled on a log grid with 395 points:
    l: 0  eig: -0.238595  rCut: 1.2
    l: 0  eig: 1.000000  rCut: 1.2
  Transforming local potential to a uniform radial grid of dG=0.02 with 1464 points.
  Transforming nonlocal projectors to a uniform radial grid of dG=0.02 with 432 points.
  Transforming density augmentations to a uniform radial grid of dG=0.02 with 1464 points.
  Transforming atomic orbitals to a uniform radial grid of dG=0.02 with 432 points.
  Core radius for overlap checks: 1.20 bohrs.

Initialized 5 species with 54 total atoms.

Folded 1 k-points by 3x3x1 to 9 k-points.

---------- Setting up k-points, bands, fillings ----------
No reducable k-points. 
Computing the number of bands and number of electrons
Calculating initial fillings.
nElectrons: 226.000000   nBands: 136   nStates: 18

----- Setting up reduced wavefunction bases (one per k-point) -----
average nbasis = 86412.556 , ideal nbasis = 86404.907

----- Initializing Supercell corresponding to k-point mesh -----
Lattice vector linear combinations in supercell:
[   3   0   0  ]
[   0   3   0  ]
[   0   0   1  ]
Supercell lattice vectors:
[  70.3088  -35.2004  0  ]
[  0.053982  59.8255  0  ]
[  0  0  43.2563  ]

Initializing DFT-D3 calculator:
	Parameters set for gga-PBE functional
	s6:  1.000  s_r6:  1.217
	s8:  0.722  s_r8:  1.000
	Per-atom parameters loaded for:
	 C:  sqrtQ[a0]:  3.105  Rcov[a0]:  1.417  CN: [ 0.00 0.99 2.00 3.00 3.98 ]
	 N:  sqrtQ[a0]:  2.712  Rcov[a0]:  1.342  CN: [ 0.00 0.99 2.01 2.99 ]
	Ti:  sqrtQ[a0]:  6.288  Rcov[a0]:  2.305  CN: [ 0.00 1.83 3.87 ]
	 O:  sqrtQ[a0]:  2.594  Rcov[a0]:  1.191  CN: [ 0.00 0.99 1.99 ]
	 H:  sqrtQ[a0]:  2.007  Rcov[a0]:  0.605  CN: [ 0.91 0.00 ]

Initializing DFT-D2 calculator for fluid / solvation:
	 C:  C6:   30.35 Eh-a0^6  R0: 2.744 a0
	 N:  C6:   21.33 Eh-a0^6  R0: 2.640 a0
	Ti:  C6:  187.33 Eh-a0^6  R0: 2.952 a0
	 O:  C6:   12.14 Eh-a0^6  R0: 2.536 a0
	 H:  C6:    2.43 Eh-a0^6  R0: 1.892 a0

---------- Setting up ewald sum ----------
Optimum gaussian width for ewald sums = 5.590847 bohr.
Real space sum over 567 unit cells with max indices [  4  4  3  ]
Reciprocal space sum over 7803 terms with max indices [  8  8  13  ]

Computing DFT-D3 correction:
# coordination-number C 3.300 3.321 3.333 3.331 3.312 3.290 3.318 3.517 3.329 3.312 3.303 3.334 3.301 3.299 3.323 3.656 3.263 3.300 3.317 3.332 3.326 3.303 3.300 3.327 3.334 3.318 3.300 3.268 3.517 3.323 3.301 3.306 3.315 3.300 3.312 3.326 3.644 3.328 3.288 3.311 3.330 3.332 3.322 3.301 2.007
# coordination-number N 3.168 3.176 3.184 3.181
# coordination-number Ti 6.403
# coordination-number O 1.022 1.991
# coordination-number H 0.992 0.993
# diagonal-C6 C 24.28 24.07 23.94 23.97 24.17 24.37 24.10 21.39 23.99 24.16 24.26 23.93 24.27 24.29 24.05 19.68 24.61 24.28 24.11 23.96 24.02 24.25 24.28 24.01 23.93 24.10 24.29 24.57 21.39 24.05 24.27 24.22 24.13 24.28 24.17 24.02 19.79 24.00 24.40 24.17 23.98 23.95 24.06 24.28 29.48
# diagonal-C6 N 15.60 15.60 15.60 15.60
# diagonal-C6 Ti 321.59
# diagonal-C6 O 12.79 10.41
# diagonal-C6 H 3.09 3.09
EvdW_6 =   -0.043016
EvdW_8 =   -0.033251

---------- Allocating electronic variables ----------
Initializing wave functions:  linear combination of atomic orbitals
C pseudo-atom occupations:   s ( 2 )  p ( 2 )
N pseudo-atom occupations:   s ( 2 )  p ( 3 )
Ti pseudo-atom occupations:   s ( 2 0 )  p ( 6 )  d ( 4 )
O pseudo-atom occupations:   s ( 2 )  p ( 4 )
H pseudo-atom occupations:   s ( 1 )
	FillingsUpdate:  mu: -0.160200000  nElectrons: 226.000000  magneticMoment: [ Abs: 0.00444  Tot: +0.00001 ]
LCAOMinimize: Iter:   0  G: -347.4500046845314500  |grad|_K:  3.076e-03  alpha:  1.000e+00
	FillingsUpdate:  mu: -0.160200000  nElectrons: 226.000000  magneticMoment: [ Abs: 0.00439  Tot: -0.00000 ]
LCAOMinimize: Iter:   1  G: -347.8512919126220027  |grad|_K:  1.900e-03  alpha:  7.453e-02  linmin: -1.337e-01  cgtest:  1.293e+00  t[s]:    292.57
LCAOMinimize: Encountered beta<0, resetting CG.
LCAOMinimize: 	Predicted alpha/alphaT>3.000000, increasing alphaT to 2.235845e-01.
LCAOMinimize: 	Step increased G by 3.162617e-01, reducing alpha to 4.400278e-02.
	FillingsUpdate:  mu: -0.160200000  nElectrons: 226.000000  magneticMoment: [ Abs: 0.00438  Tot: -0.00000 ]
LCAOMinimize: Iter:   2  G: -347.9739555704139207  |grad|_K:  1.645e-03  alpha:  4.400e-02  linmin: -1.272e-01  cgtest:  1.032e+00  t[s]:    525.53
LCAOMinimize: Encountered beta<0, resetting CG.
LCAOMinimize: 	Predicted alpha/alphaT>3.000000, increasing alphaT to 1.320083e-01.
LCAOMinimize: 	Predicted alpha/alphaT>3.000000, increasing alphaT to 3.960250e-01.
	FillingsUpdate:  mu: -0.160200000  nElectrons: 226.000000  magneticMoment: [ Abs: 0.00439  Tot: -0.00000 ]
LCAOMinimize: Iter:   3  G: -348.2485851721645531  |grad|_K:  1.313e-03  alpha:  1.357e-01  linmin: -1.105e-01  cgtest:  8.733e-01  t[s]:    702.14
LCAOMinimize: Encountered beta<0, resetting CG.
LCAOMinimize: 	Wrong curvature in test step, increasing alphaT to 4.071153e-01.
	FillingsUpdate:  mu: -0.160200000  nElectrons: 226.000000  magneticMoment: [ Abs: 0.00459  Tot: -0.00028 ]
LCAOMinimize: Iter:   4  G: -348.5022509788597631  |grad|_K:  1.306e-03  alpha: -2.424e-01  linmin: -1.508e-02  cgtest:  6.562e-01  t[s]:    816.62
	FillingsUpdate:  mu: -0.160200000  nElectrons: 226.000000  magneticMoment: [ Abs: 0.00471  Tot: -0.00043 ]
LCAOMinimize: Iter:   5  G: -348.5476580901652142  |grad|_K:  1.584e-03  alpha:  2.882e-02  linmin: -2.232e-02  cgtest:  8.944e-01  t[s]:    934.23
LCAOMinimize: 	Predicted alpha/alphaT>3.000000, increasing alphaT to 8.644534e-02.
LCAOMinimize: 	Predicted alpha/alphaT>3.000000, increasing alphaT to 2.593360e-01.
	FillingsUpdate:  mu: -0.160200000  nElectrons: 226.000000  magneticMoment: [ Abs: 0.00472  Tot: -0.00041 ]
LCAOMinimize: Iter:   6  G: -348.5978584060025014  |grad|_K:  1.283e-03  alpha:  1.965e-02  linmin: -8.765e-02  cgtest:  9.064e-01  t[s]:   1112.03
LCAOMinimize: Encountered beta<0, resetting CG.
LCAOMinimize: 	Predicted alpha/alphaT>3.000000, increasing alphaT to 5.895407e-02.
LCAOMinimize: 	Wrong curvature in test step, increasing alphaT to 1.768622e-01.
	FillingsUpdate:  mu: -0.160200000  nElectrons: 226.000000  magneticMoment: [ Abs: 0.00472  Tot: -0.00037 ]
LCAOMinimize: Iter:   7  G: -348.6806682775554691  |grad|_K:  1.284e-03  alpha: -4.660e+00  linmin: -1.074e-01  cgtest:  7.773e-01  t[s]:   1257.04
	FillingsUpdate:  mu: -0.160200000  nElectrons: 226.000000  magneticMoment: [ Abs: 0.00486  Tot: -0.00050 ]
LCAOMinimize: Iter:   8  G: -348.7387873602176001  |grad|_K:  1.278e-03  alpha:  3.204e-02  linmin: -1.818e-01  cgtest:  8.741e-01  t[s]:   1375.63
LCAOMinimize: 	Wrong curvature in test step, increasing alphaT to 9.611876e-02.
	FillingsUpdate:  mu: -0.160200000  nElectrons: 226.000000  magneticMoment: [ Abs: 0.00497  Tot: -0.00062 ]
LCAOMinimize: Iter:   9  G: -348.7934730402727723  |grad|_K:  1.289e-03  alpha: -2.805e-01  linmin: -2.041e-01  cgtest:  8.907e-01  t[s]:   1491.29
	FillingsUpdate:  mu: -0.160200000  nElectrons: 226.000000  magneticMoment: [ Abs: 0.00507  Tot: -0.00069 ]
LCAOMinimize: Iter:  10  G: -348.8463171357171859  |grad|_K:  1.292e-03  alpha:  3.082e-02  linmin: -2.106e-01  cgtest:  9.000e-01  t[s]:   1609.45
LCAOMinimize: 	Wrong curvature in test step, increasing alphaT to 9.245114e-02.
	FillingsUpdate:  mu: -0.160200000  nElectrons: 226.000000  magneticMoment: [ Abs: 0.00516  Tot: -0.00076 ]
LCAOMinimize: Iter:  11  G: -348.8981391267824961  |grad|_K:  1.279e-03  alpha: -2.962e-01  linmin: -2.174e-01  cgtest:  8.961e-01  t[s]:   1725.07
	FillingsUpdate:  mu: -0.160200000  nElectrons: 226.000000  magneticMoment: [ Abs: 0.00525  Tot: -0.00082 ]
LCAOMinimize: Iter:  12  G: -348.9466938590389873  |grad|_K:  1.246e-03  alpha:  2.996e-02  linmin: -2.269e-01  cgtest:  8.952e-01  t[s]:   1843.32
LCAOMinimize: 	Wrong curvature in test step, increasing alphaT to 8.988306e-02.
	FillingsUpdate:  mu: -0.160200000  nElectrons: 226.000000  magneticMoment: [ Abs: 0.00533  Tot: -0.00089 ]
LCAOMinimize: Iter:  13  G: -348.9913631339114772  |grad|_K:  1.184e-03  alpha: -4.884e-01  linmin: -2.382e-01  cgtest:  8.960e-01  t[s]:   1960.02
	FillingsUpdate:  mu: -0.160200000  nElectrons: 226.000000  magneticMoment: [ Abs: 0.00539  Tot: -0.00093 ]
LCAOMinimize: Iter:  14  G: -349.0251776344471182  |grad|_K:  1.104e-03  alpha:  2.639e-02  linmin: -2.475e-01  cgtest:  9.150e-01  t[s]:   2078.27
LCAOMinimize: 	Predicted alpha/alphaT>3.000000, increasing alphaT to 7.915595e-02.
LCAOMinimize: 	Predicted alpha/alphaT>3.000000, increasing alphaT to 2.374679e-01.
	FillingsUpdate:  mu: -0.160200000  nElectrons: 226.000000  magneticMoment: [ Abs: 0.00552  Tot: -0.00107 ]
LCAOMinimize: Iter:  15  G: -349.0796125219729902  |grad|_K:  8.538e-04  alpha:  5.353e-02  linmin: -2.776e-01  cgtest:  8.276e-01  t[s]:   2257.94
LCAOMinimize: Encountered beta<0, resetting CG.
LCAOMinimize: 	Predicted alpha/alphaT>3.000000, increasing alphaT to 1.605805e-01.
	FillingsUpdate:  mu: -0.160200000  nElectrons: 226.000000  magneticMoment: [ Abs: 0.00570  Tot: -0.00125 ]
LCAOMinimize: Iter:  16  G: -349.1194757000188815  |grad|_K:  4.602e-04  alpha:  8.697e-02  linmin: -6.606e-02  cgtest:  6.514e-01  t[s]:   2406.36
LCAOMinimize: Encountered beta<0, resetting CG.
	FillingsUpdate:  mu: -0.160200000  nElectrons: 226.000000  magneticMoment: [ Abs: 0.00578  Tot: -0.00121 ]
LCAOMinimize: Iter:  17  G: -349.1291199081087484  |grad|_K:  3.312e-04  alpha:  1.034e-01  linmin: -1.892e-02  cgtest:  1.161e-01  t[s]:   2524.63
	FillingsUpdate:  mu: -0.160200000  nElectrons: 226.000000  magneticMoment: [ Abs: 0.00624  Tot: -0.00168 ]
LCAOMinimize: Iter:  18  G: -349.1326399396684224  |grad|_K:  1.470e-04  alpha:  6.207e-02  linmin: -1.524e-02  cgtest: -1.090e-01  t[s]:   2642.77
LCAOMinimize: 	Predicted alpha/alphaT>3.000000, increasing alphaT to 1.862207e-01.
	FillingsUpdate:  mu: -0.160200000  nElectrons: 226.000000  magneticMoment: [ Abs: 0.00745  Tot: -0.00267 ]
LCAOMinimize: Iter:  19  G: -349.1345903200976295  |grad|_K:  8.031e-05  alpha:  1.977e-01  linmin:  1.571e-02  cgtest: -1.758e-01  t[s]:   2791.00
	FillingsUpdate:  mu: -0.160200000  nElectrons: 226.000000  magneticMoment: [ Abs: 0.00937  Tot: -0.00432 ]
LCAOMinimize: Iter:  20  G: -349.1349490457876641  |grad|_K:  8.069e-05  alpha:  1.523e-01  linmin: -5.390e-03  cgtest:  3.244e-01  t[s]:   2909.25
	FillingsUpdate:  mu: -0.160200000  nElectrons: 226.000000  magneticMoment: [ Abs: 0.01169  Tot: -0.00614 ]
LCAOMinimize: Iter:  21  G: -349.1352853887181595  |grad|_K:  7.215e-05  alpha:  1.129e-01  linmin:  5.844e-03  cgtest: -2.336e-01  t[s]:   3027.56
	FillingsUpdate:  mu: -0.160200000  nElectrons: 226.000000  magneticMoment: [ Abs: 0.01524  Tot: -0.00905 ]
LCAOMinimize: Iter:  22  G: -349.1354290327447529  |grad|_K:  3.865e-05  alpha:  7.826e-02  linmin: -1.238e-02  cgtest:  7.139e-01  t[s]:   3146.18
LCAOMinimize: Encountered beta<0, resetting CG.
	FillingsUpdate:  mu: -0.160200000  nElectrons: 226.000000  magneticMoment: [ Abs: 0.01790  Tot: -0.01120 ]
LCAOMinimize: Iter:  23  G: -349.1354819340716631  |grad|_K:  2.925e-05  alpha:  8.239e-02  linmin: -4.669e-02  cgtest:  3.946e-01  t[s]:   3264.37
LCAOMinimize: 	Predicted alpha/alphaT>3.000000, increasing alphaT to 2.471731e-01.
	FillingsUpdate:  mu: -0.160200000  nElectrons: 226.000000  magneticMoment: [ Abs: 0.02386  Tot: -0.01570 ]
LCAOMinimize: Iter:  24  G: -349.1355480836369907  |grad|_K:  3.221e-05  alpha:  1.339e-01  linmin:  1.427e-02  cgtest: -4.353e-01  t[s]:   3413.61
	FillingsUpdate:  mu: -0.160200000  nElectrons: 226.000000  magneticMoment: [ Abs: 0.03024  Tot: -0.02061 ]
LCAOMinimize: Iter:  25  G: -349.1355585207261356  |grad|_K:  2.663e-05  alpha:  4.743e-02  linmin: -2.865e-03  cgtest:  9.199e-01  t[s]:   3531.78
LCAOMinimize: Encountered beta<0, resetting CG.
	FillingsUpdate:  mu: -0.160200000  nElectrons: 226.000000  magneticMoment: [ Abs: 0.03213  Tot: -0.02212 ]
LCAOMinimize: Iter:  26  G: -349.1355623124115368  |grad|_K:  1.526e-05  alpha:  2.442e-02  linmin: -7.676e-02  cgtest:  9.046e-01  t[s]:   3650.50
LCAOMinimize: Encountered beta<0, resetting CG.
	FillingsUpdate:  mu: -0.160200000  nElectrons: 226.000000  magneticMoment: [ Abs: 0.03339  Tot: -0.02310 ]
LCAOMinimize: Iter:  27  G: -349.1355631618669690  |grad|_K:  1.304e-05  alpha:  1.581e-02  linmin: -9.202e-02  cgtest:  9.798e-01  t[s]:   3768.63
LCAOMinimize: Encountered beta<0, resetting CG.
	FillingsUpdate:  mu: -0.160200000  nElectrons: 226.000000  magneticMoment: [ Abs: 0.03441  Tot: -0.02390 ]
LCAOMinimize: Iter:  28  G: -349.1355638294470509  |grad|_K:  1.207e-05  alpha:  1.240e-02  linmin: -9.705e-02  cgtest:  9.927e-01  t[s]:   3886.76
LCAOMinimize: Encountered beta<0, resetting CG.
LCAOMinimize: Converged (|Delta G|<1.000000e-06 for 2 iters).
----- createFluidSolver() ----- (Fluid-side solver setup)
   Initializing fluid molecule 'H2O'
     Initializing site 'O'
       Electron density: proportional to exp(-r/0.36935)*erfc((r-0.51523)/0.36823) with norm 6.826
       Charge density: gaussian nuclear width 0.478731 with net site charge 0.826
       Polarizability: cuspless exponential with width 0.32 and norm 3.73
       Hard sphere radius: 2.57003 bohrs
       Positions in reference frame:
         [ +0.000000 +0.000000 +0.000000 ]
     Initializing site 'H'
       Electron density: proportional to exp(-r/0.34641)*erfc((r-0)/0.390882) with norm 0.587
       Charge density: gaussian nuclear width 0.377945 with net site charge -0.413
       Polarizability: cuspless exponential with width 0.39 and norm 3.3
       Positions in reference frame:
         [ +0.000000 -1.441945 +1.122523 ]
         [ +0.000000 +1.441945 +1.122523 ]
     Net charge: 0   dipole magnitude: 0.927204
     Initializing spherical shell mfKernel with radius 2.61727 Bohr
     deltaS corrections:
       site 'O': -7.54299
       site 'H': -6.83917
   Initializing fluid molecule 'Na+'
     Initializing site 'Na'
       Electron density: proportional to exp(-r/0.19682)*erfc((r-0.71491)/0.41314) with norm 8.1383
       Charge density: gaussian nuclear width 0.365347 with net site charge -1
       Hard sphere radius: 1.86327 bohrs
       Positions in reference frame:
         [ +0.000000 +0.000000 +0.000000 ]
     Net charge: -1   dipole magnitude: 0
     Initializing gaussian mfKernel with width: 1.55004 Bohr
     deltaS corrections:
       site 'Na': -22.3555
   Initializing fluid molecule 'F-'
     Initializing site 'F'
       Electron density: proportional to exp(-r/0.38886)*erfc((r-0)/0.438782) with norm 8
       Charge density: gaussian nuclear width 0.374796 with net site charge 1
       Hard sphere radius: 2.39995 bohrs
       Positions in reference frame:
         [ +0.000000 +0.000000 +0.000000 ]
     Net charge: 1   dipole magnitude: 0
     Initializing gaussian mfKernel with width: 1.59012 Bohr
     deltaS corrections:
       site 'F': -9.04335

Correction to mu due to finite nuclear width = -0.0110869
   Cavity determined by nc: 0.00142 and sigma: 0.707107
   Nonlocal vdW cavity from gaussian model electron density with norm = 8 and sigma = 0.993594 bohr
   Charge asymmetry in cavity with sensitivity pCavity = 36.5 e-bohr/Eh
   Electrostatic cavity expanded by eta = 1.46 bohrs
   Weighted density cavitation model constrained by Nbulk: 0.0049383 bohr^-3, Pvap: 3.14029 kPa, Rvdw: 2.61727 bohr and sigmaBulk: 4.62e-05 Eh/bohr^2 at T: 298 K.
   Weighted density dispersion model using vdW pair potentials with single solvent site with sqrtC6eff: 0.77 SI.
WARNING: Vibrations: switching off translationSym and rotationSym since useConstraints is on.

---- Citations for features of the code used in this run ----

   Software package:
      R. Sundararaman, K. Letchworth-Weaver, K.A. Schwarz, D. Gunceler, Y. Ozhabes and T.A. Arias, 'JDFTx: software for joint density-functional theory', SoftwareX 6, 278 (2017)

   gga-PBE exchange-correlation functional:
      J.P. Perdew, K. Burke and M. Ernzerhof, Phys. Rev. Lett. 77, 3865 (1996)

   Pseudopotentials:
      KF Garrity, JW Bennett, KM Rabe and D Vanderbilt, Comput. Mater. Sci. 81, 446 (2014)

   DFT-D3 dispersion correction:
      S. Grimme, J. Antony, S. Ehrlich and H. Krieg, J. Chem. Phys. 132, 154104 (2010)

   DFT-D2 dispersion correction:
      S. Grimme, J. Comput. Chem. 27, 1787 (2006)

   Charge-asymmetric nonlocally-determined local-electric (CANDLE) solvation model:
      R. Sundararaman and W.A. Goddard III, J. Chem. Phys. 142, 064107 (2015)

   Total energy minimization with Auxiliary Hamiltonian:
      C. Freysoldt, S. Boeck, and J. Neugebauer, Phys. Rev. B 79, 241103(R) (2009)

   Grand-canonical (fixed-potential) DFT:
      R. Sundararaman, W. A. Goddard III and T. A. Arias, J. Chem. Phys. 146, 114104 (2017)

   Linear-tetrahedron sampling for density of states:
      G. Lehmann and M. Taut, Phys. status solidi (b) 54, 469 (1972)

This list may not be complete. Please suggest additional citations or
report any other bugs at https://github.com/shankar1729/jdftx/issues

Initialization completed successfully at t[s]:   3902.35

------ Vibrations::calculate() -------
WARNING: Vibrations module is experimental. Please report bugs!
Compare results with and without symmetries and report discrepancies.
Degrees of freedom: 15 total, 15 symmetry-independent.

Computing DFT-D3 correction:
# coordination-number C 3.300 3.321 3.333 3.331 3.312 3.290 3.318 3.517 3.329 3.312 3.303 3.334 3.301 3.299 3.323 3.656 3.263 3.300 3.317 3.332 3.326 3.303 3.300 3.327 3.334 3.318 3.300 3.268 3.517 3.323 3.301 3.306 3.315 3.300 3.312 3.326 3.644 3.328 3.288 3.311 3.330 3.332 3.322 3.301 2.007
# coordination-number N 3.168 3.176 3.184 3.181
# coordination-number Ti 6.403
# coordination-number O 1.022 1.991
# coordination-number H 0.992 0.993
# diagonal-C6 C 24.28 24.07 23.94 23.97 24.17 24.37 24.10 21.39 23.99 24.16 24.26 23.93 24.27 24.29 24.05 19.68 24.61 24.28 24.11 23.96 24.02 24.25 24.28 24.01 23.93 24.10 24.29 24.57 21.39 24.05 24.27 24.22 24.13 24.28 24.17 24.02 19.79 24.00 24.40 24.17 23.98 23.95 24.06 24.28 29.48
# diagonal-C6 N 15.60 15.60 15.60 15.60
# diagonal-C6 Ti 321.59
# diagonal-C6 O 12.79 10.41
# diagonal-C6 H 3.09 3.09
EvdW_6 =   -0.043016
EvdW_8 =   -0.033251
Fluid solver invoked on fresh (random / LCAO) wavefunctions
Running a vacuum solve first:

-------- Initial electronic minimization -----------
	FillingsUpdate:  mu: -0.178007436  nElectrons: 226.000000  magneticMoment: [ Abs: 0.03441  Tot: -0.02390 ]
ElecMinimize: Iter:   0  G: -349.135657180216299  |grad|_K:  1.442e-04  alpha:  1.000e+00
	FillingsUpdate:  mu: -0.131708399  nElectrons: 226.000000  magneticMoment: [ Abs: 0.09323  Tot: -0.07051 ]
	SubspaceRotationAdjust: set factor to 0.896
ElecMinimize: Iter:   1  G: -352.099493117581630  |grad|_K:  6.205e-05  alpha:  6.825e-01  linmin:  7.001e-04  t[s]:   4093.23
	FillingsUpdate:  mu: -0.054559991  nElectrons: 226.000000  magneticMoment: [ Abs: 0.16989  Tot: -0.16514 ]
	SubspaceRotationAdjust: set factor to 0.594
ElecMinimize: Iter:   2  G: -352.137580090533220  |grad|_K:  7.080e-05  alpha:  1.202e-01  linmin:  1.285e-03  t[s]:   4208.58
	FillingsUpdate:  mu: -0.094988500  nElectrons: 226.000000  magneticMoment: [ Abs: 0.32482  Tot: -0.23083 ]
	SubspaceRotationAdjust: set factor to 0.243
ElecMinimize: Iter:   3  G: -352.341886281284701  |grad|_K:  3.593e-05  alpha:  3.312e-01  linmin:  9.129e-04  t[s]:   4324.66
	FillingsUpdate:  mu: -0.045018795  nElectrons: 226.000000  magneticMoment: [ Abs: 0.49892  Tot: -0.41988 ]
	SubspaceRotationAdjust: set factor to 0.145
ElecMinimize: Iter:   4  G: -352.369775443495655  |grad|_K:  2.727e-05  alpha:  1.825e-01  linmin:  3.242e-04  t[s]:   4440.04
	FillingsUpdate:  mu: -0.054330818  nElectrons: 226.000000  magneticMoment: [ Abs: 0.55776  Tot: -0.46714 ]
	SubspaceRotationAdjust: set factor to 0.227
ElecMinimize: Iter:   5  G: -352.413522791279831  |grad|_K:  1.345e-05  alpha:  3.098e-01  linmin: -6.751e-07  t[s]:   4555.61
	FillingsUpdate:  mu: -0.070611111  nElectrons: 226.000000  magneticMoment: [ Abs: 0.66131  Tot: -0.50641 ]
	SubspaceRotationAdjust: set factor to 0.229
ElecMinimize: Iter:   6  G: -352.433964894058306  |grad|_K:  8.522e-06  alpha:  5.354e-01  linmin:  4.357e-05  t[s]:   4671.60
	FillingsUpdate:  mu: -0.063587891  nElectrons: 226.000000  magneticMoment: [ Abs: 0.74032  Tot: -0.54365 ]
	SubspaceRotationAdjust: set factor to 0.244
ElecMinimize: Iter:   7  G: -352.440215945143166  |grad|_K:  5.701e-06  alpha:  4.090e-01  linmin: -1.374e-05  t[s]:   4787.06
	FillingsUpdate:  mu: -0.062821831  nElectrons: 226.000000  magneticMoment: [ Abs: 0.83545  Tot: -0.59752 ]
	SubspaceRotationAdjust: set factor to 0.276
ElecMinimize: Iter:   8  G: -352.443890565585662  |grad|_K:  3.498e-06  alpha:  5.332e-01  linmin: -3.190e-05  t[s]:   4902.31
	FillingsUpdate:  mu: -0.063729563  nElectrons: 226.000000  magneticMoment: [ Abs: 0.91543  Tot: -0.66064 ]
	SubspaceRotationAdjust: set factor to 0.314
ElecMinimize: Iter:   9  G: -352.445334187494950  |grad|_K:  3.178e-06  alpha:  5.559e-01  linmin: -9.772e-06  t[s]:   5018.38
	FillingsUpdate:  mu: -0.060437276  nElectrons: 226.000000  magneticMoment: [ Abs: 1.00907  Tot: -0.76262 ]
	SubspaceRotationAdjust: set factor to 0.331
ElecMinimize: Iter:  10  G: -352.446388449579274  |grad|_K:  2.508e-06  alpha:  4.903e-01  linmin:  3.329e-05  t[s]:   5134.01
	FillingsUpdate:  mu: -0.061978152  nElectrons: 226.000000  magneticMoment: [ Abs: 1.11132  Tot: -0.87787 ]
	SubspaceRotationAdjust: set factor to 0.392
ElecMinimize: Iter:  11  G: -352.447131505498078  |grad|_K:  2.165e-06  alpha:  5.584e-01  linmin: -8.892e-05  t[s]:   5249.70
	FillingsUpdate:  mu: -0.064249623  nElectrons: 226.000000  magneticMoment: [ Abs: 1.24726  Tot: -1.04993 ]
	SubspaceRotationAdjust: set factor to 0.446
ElecMinimize: Iter:  12  G: -352.447839747837065  |grad|_K:  2.078e-06  alpha:  6.781e-01  linmin: -9.239e-05  t[s]:   5365.41
	FillingsUpdate:  mu: -0.061562558  nElectrons: 226.000000  magneticMoment: [ Abs: 1.39061  Tot: -1.23355 ]
	SubspaceRotationAdjust: set factor to 0.412
ElecMinimize: Iter:  13  G: -352.448270260318736  |grad|_K:  2.214e-06  alpha:  4.345e-01  linmin:  1.241e-05  t[s]:   5481.13
	FillingsUpdate:  mu: -0.062881099  nElectrons: 226.000000  magneticMoment: [ Abs: 1.56858  Tot: -1.41868 ]
	SubspaceRotationAdjust: set factor to 0.583
ElecMinimize: Iter:  14  G: -352.448736876082933  |grad|_K:  1.961e-06  alpha:  4.518e-01  linmin: -3.548e-06  t[s]:   5596.68
	FillingsUpdate:  mu: -0.065712446  nElectrons: 226.000000  magneticMoment: [ Abs: 1.64561  Tot: -1.47948 ]
	SubspaceRotationAdjust: set factor to 0.594
ElecMinimize: Iter:  15  G: -352.449007235525130  |grad|_K:  1.721e-06  alpha:  3.363e-01  linmin: -3.120e-05  t[s]:   5712.26
	FillingsUpdate:  mu: -0.065142946  nElectrons: 226.000000  magneticMoment: [ Abs: 1.70400  Tot: -1.51662 ]
	SubspaceRotationAdjust: set factor to 0.787
ElecMinimize: Iter:  16  G: -352.449205641069568  |grad|_K:  1.221e-06  alpha:  3.148e-01  linmin: -1.262e-04  t[s]:   5827.60
	FillingsUpdate:  mu: -0.064038315  nElectrons: 226.000000  magneticMoment: [ Abs: 1.74559  Tot: -1.53583 ]
	SubspaceRotationAdjust: set factor to 0.872
ElecMinimize: Iter:  17  G: -352.449349254920094  |grad|_K:  1.147e-06  alpha:  4.421e-01  linmin: -8.183e-05  t[s]:   5943.36
	FillingsUpdate:  mu: -0.065206162  nElectrons: 226.000000  magneticMoment: [ Abs: 1.75943  Tot: -1.53908 ]
	SubspaceRotationAdjust: set factor to 0.802
ElecMinimize: Iter:  18  G: -352.449419185054069  |grad|_K:  8.568e-07  alpha:  2.427e-01  linmin: -9.975e-07  t[s]:   6059.29
	FillingsUpdate:  mu: -0.064669090  nElectrons: 226.000000  magneticMoment: [ Abs: 1.77142  Tot: -1.54162 ]
	SubspaceRotationAdjust: set factor to 0.868
ElecMinimize: Iter:  19  G: -352.449475664766965  |grad|_K:  6.168e-07  alpha:  3.622e-01  linmin: -9.451e-06  t[s]:   6175.24
	FillingsUpdate:  mu: -0.064569838  nElectrons: 226.000000  magneticMoment: [ Abs: 1.77141  Tot: -1.53946 ]
	SubspaceRotationAdjust: set factor to 0.955
ElecMinimize: Iter:  20  G: -352.449508840708006  |grad|_K:  5.288e-07  alpha:  4.093e-01  linmin:  3.782e-06  t[s]:   6290.64
	FillingsUpdate:  mu: -0.065253589  nElectrons: 226.000000  magneticMoment: [ Abs: 1.76610  Tot: -1.53549 ]
	SubspaceRotationAdjust: set factor to 0.848
ElecMinimize: Iter:  21  G: -352.449527096022848  |grad|_K:  5.485e-07  alpha:  3.072e-01  linmin:  8.453e-06  t[s]:   6405.76
	FillingsUpdate:  mu: -0.064572102  nElectrons: 226.000000  magneticMoment: [ Abs: 1.76266  Tot: -1.53296 ]
	SubspaceRotationAdjust: set factor to 0.99
ElecMinimize: Iter:  22  G: -352.449545421021469  |grad|_K:  3.742e-07  alpha:  2.885e-01  linmin:  6.270e-06  t[s]:   6521.03
	FillingsUpdate:  mu: -0.064375773  nElectrons: 226.000000  magneticMoment: [ Abs: 1.75714  Tot: -1.52998 ]
	SubspaceRotationAdjust: set factor to 1.16
ElecMinimize: Iter:  23  G: -352.449559782538245  |grad|_K:  3.551e-07  alpha:  4.849e-01  linmin:  7.919e-08  t[s]:   6636.43
	FillingsUpdate:  mu: -0.064824446  nElectrons: 226.000000  magneticMoment: [ Abs: 1.75081  Tot: -1.52662 ]
	SubspaceRotationAdjust: set factor to 1.08
ElecMinimize: Iter:  24  G: -352.449567836068127  |grad|_K:  3.624e-07  alpha:  2.988e-01  linmin: -3.124e-06  t[s]:   6752.61
	FillingsUpdate:  mu: -0.064473609  nElectrons: 226.000000  magneticMoment: [ Abs: 1.74848  Tot: -1.52640 ]
	SubspaceRotationAdjust: set factor to 0.897
ElecMinimize: Iter:  25  G: -352.449573412185373  |grad|_K:  2.591e-07  alpha:  2.002e-01  linmin:  1.016e-07  t[s]:   6867.94
	FillingsUpdate:  mu: -0.064513378  nElectrons: 226.000000  magneticMoment: [ Abs: 1.74671  Tot: -1.52722 ]
	SubspaceRotationAdjust: set factor to 1.04
ElecMinimize: Iter:  26  G: -352.449578314913254  |grad|_K:  1.829e-07  alpha:  3.450e-01  linmin: -1.754e-06  t[s]:   6983.33
	FillingsUpdate:  mu: -0.064623698  nElectrons: 226.000000  magneticMoment: [ Abs: 1.74658  Tot: -1.52889 ]
	SubspaceRotationAdjust: set factor to 0.99
ElecMinimize: Iter:  27  G: -352.449581597860913  |grad|_K:  1.862e-07  alpha:  4.629e-01  linmin: -5.500e-06  t[s]:   7098.73
	FillingsUpdate:  mu: -0.064424358  nElectrons: 226.000000  magneticMoment: [ Abs: 1.74754  Tot: -1.53036 ]
	SubspaceRotationAdjust: set factor to 0.879
ElecMinimize: Iter:  28  G: -352.449583296579931  |grad|_K:  1.628e-07  alpha:  2.318e-01  linmin:  3.071e-06  t[s]:   7214.19
	FillingsUpdate:  mu: -0.064589118  nElectrons: 226.000000  magneticMoment: [ Abs: 1.74759  Tot: -1.53085 ]
	SubspaceRotationAdjust: set factor to 0.886
ElecMinimize: Iter:  29  G: -352.449584928991442  |grad|_K:  1.214e-07  alpha:  2.912e-01  linmin:  1.538e-07  t[s]:   7329.75
	FillingsUpdate:  mu: -0.064588567  nElectrons: 226.000000  magneticMoment: [ Abs: 1.74852  Tot: -1.53152 ]
	SubspaceRotationAdjust: set factor to 1.07
ElecMinimize: Iter:  30  G: -352.449586240107692  |grad|_K:  9.921e-08  alpha:  4.205e-01  linmin: -1.448e-07  t[s]:   7445.46
	FillingsUpdate:  mu: -0.064463760  nElectrons: 226.000000  magneticMoment: [ Abs: 1.74943  Tot: -1.53187 ]
	SubspaceRotationAdjust: set factor to 0.936
ElecMinimize: Iter:  31  G: -352.449586907553964  |grad|_K:  1.015e-07  alpha:  3.204e-01  linmin: -2.795e-07  t[s]:   7561.18
	FillingsUpdate:  mu: -0.064575378  nElectrons: 226.000000  magneticMoment: [ Abs: 1.74928  Tot: -1.53140 ]
	SubspaceRotationAdjust: set factor to 0.828
ElecMinimize: Iter:  32  G: -352.449587363195576  |grad|_K:  6.779e-08  alpha:  2.087e-01  linmin: -2.381e-08  t[s]:   7677.22
	FillingsUpdate:  mu: -0.064569189  nElectrons: 226.000000  magneticMoment: [ Abs: 1.74917  Tot: -1.53078 ]
	SubspaceRotationAdjust: set factor to 0.964
ElecMinimize: Iter:  33  G: -352.449587759884821  |grad|_K:  5.528e-08  alpha:  4.080e-01  linmin:  1.303e-06  t[s]:   7792.65
	FillingsUpdate:  mu: -0.064518193  nElectrons: 226.000000  magneticMoment: [ Abs: 1.74926  Tot: -1.53046 ]
	SubspaceRotationAdjust: set factor to 0.988
ElecMinimize: Iter:  34  G: -352.449588016436735  |grad|_K:  4.704e-08  alpha:  3.972e-01  linmin: -1.004e-07  t[s]:   7908.64
	FillingsUpdate:  mu: -0.064563511  nElectrons: 226.000000  magneticMoment: [ Abs: 1.74909  Tot: -1.53021 ]
	SubspaceRotationAdjust: set factor to 0.888
ElecMinimize: Iter:  35  G: -352.449588140631363  |grad|_K:  4.501e-08  alpha:  2.650e-01  linmin: -7.992e-08  t[s]:   8023.64
	FillingsUpdate:  mu: -0.064518164  nElectrons: 226.000000  magneticMoment: [ Abs: 1.74916  Tot: -1.53020 ]
	SubspaceRotationAdjust: set factor to 0.851
ElecMinimize: Iter:  36  G: -352.449588268378307  |grad|_K:  3.214e-08  alpha:  2.979e-01  linmin:  8.062e-08  t[s]:   8138.84
	FillingsUpdate:  mu: -0.064530208  nElectrons: 226.000000  magneticMoment: [ Abs: 1.74901  Tot: -1.53014 ]
	SubspaceRotationAdjust: set factor to 0.972
ElecMinimize: Iter:  37  G: -352.449588356665458  |grad|_K:  2.593e-08  alpha:  4.038e-01  linmin:  1.452e-07  t[s]:   8254.34
	FillingsUpdate:  mu: -0.064554162  nElectrons: 226.000000  magneticMoment: [ Abs: 1.74894  Tot: -1.53019 ]
	SubspaceRotationAdjust: set factor to 0.945
ElecMinimize: Iter:  38  G: -352.449588415418077  |grad|_K:  2.556e-08  alpha:  4.125e-01  linmin:  1.040e-07  t[s]:   8369.49
ElecMinimize: Converged (|Delta G|<1.000000e-07 for 2 iters).
Setting wave functions to eigenvectors of Hamiltonian
Converging empty states (this may take a while): |deigs|: 8.471e-03
Vacuum energy after initial minimize, F = -352.449588415418077

Shifting auxilliary hamiltonian by -0.095646 to set nElectrons=226.000000

-------- Electronic minimization -----------
	Linear fluid (dielectric constant: 78.4, screening length: 8.12261 Bohr) occupying 0.713081 of unit cell:	Completed after 23 iterations at t[s]:   8946.04
	FillingsUpdate:  mu: -0.160200000  nElectrons: 226.000000  magneticMoment: [ Abs: 1.74977  Tot: -1.53090 ]
ElecMinimize: Iter:   0  G: -352.449163500669385  |grad|_K:  1.863e-05  alpha:  1.000e+00
	Linear fluid (dielectric constant: 78.4, screening length: 8.12261 Bohr) occupying 0.715491 of unit cell:	Completed after 24 iterations at t[s]:   9061.20
	Linear fluid (dielectric constant: 78.4, screening length: 8.12261 Bohr) occupying 0.713988 of unit cell:	Completed after 23 iterations at t[s]:   9112.35
	FillingsUpdate:  mu: -0.160200000  nElectrons: 225.456329  magneticMoment: [ Abs: 1.38470  Tot: -1.01311 ]
	SubspaceRotationAdjust: set factor to 0.578
ElecMinimize: Iter:   1  G: -352.456524554502550  |grad|_K:  1.676e-05  alpha:  1.854e-01  linmin:  7.114e-04  t[s]:   9162.62
	Linear fluid (dielectric constant: 78.4, screening length: 8.12261 Bohr) occupying 0.714530 of unit cell:	Completed after 14 iterations at t[s]:   9213.92
	Linear fluid (dielectric constant: 78.4, screening length: 8.12261 Bohr) occupying 0.714471 of unit cell:	Completed after 11 iterations at t[s]:   9256.80
	FillingsUpdate:  mu: -0.160200000  nElectrons: 225.402440  magneticMoment: [ Abs: 1.43771  Tot: -1.04210 ]
	SubspaceRotationAdjust: set factor to 0.288
ElecMinimize: Iter:   2  G: -352.465681421558315  |grad|_K:  5.031e-06  alpha:  1.656e-01  linmin:  2.709e-05  t[s]:   9308.11
	Linear fluid (dielectric constant: 78.4, screening length: 8.12261 Bohr) occupying 0.714733 of unit cell:	Completed after 10 iterations at t[s]:   9356.43
ElecMinimize: 	Predicted alpha/alphaT>3.000000, increasing alphaT to 4.967135e-01.
	Linear fluid (dielectric constant: 78.4, screening length: 8.12261 Bohr) occupying 0.715250 of unit cell:	Completed after 15 iterations at t[s]:   9401.84
	Linear fluid (dielectric constant: 78.4, screening length: 8.12261 Bohr) occupying 0.715460 of unit cell:	Completed after 12 iterations at t[s]:   9445.71
	FillingsUpdate:  mu: -0.160200000  nElectrons: 225.210800  magneticMoment: [ Abs: 1.40591  Tot: -1.15579 ]
	SubspaceRotationAdjust: set factor to 0.215
ElecMinimize: Iter:   3  G: -352.468969523865439  |grad|_K:  4.046e-06  alpha:  6.329e-01  linmin:  4.262e-04  t[s]:   9495.88
	Linear fluid (dielectric constant: 78.4, screening length: 8.12261 Bohr) occupying 0.716573 of unit cell:	Completed after 11 iterations at t[s]:   9544.82
	Linear fluid (dielectric constant: 78.4, screening length: 8.12261 Bohr) occupying 0.716464 of unit cell:	Completed after 6 iterations at t[s]:   9584.48
	FillingsUpdate:  mu: -0.160200000  nElectrons: 225.093340  magneticMoment: [ Abs: 1.34968  Tot: -1.08145 ]
	SubspaceRotationAdjust: set factor to 0.274
ElecMinimize: Iter:   4  G: -352.470754468969631  |grad|_K:  1.971e-06  alpha:  5.692e-01  linmin: -1.244e-04  t[s]:   9634.81
	Linear fluid (dielectric constant: 78.4, screening length: 8.12261 Bohr) occupying 0.716890 of unit cell:	Completed after 13 iterations at t[s]:   9685.37
	Linear fluid (dielectric constant: 78.4, screening length: 8.12261 Bohr) occupying 0.717051 of unit cell:	Completed after 8 iterations at t[s]:   9726.25
	FillingsUpdate:  mu: -0.160200000  nElectrons: 225.067983  magneticMoment: [ Abs: 1.32162  Tot: -1.05689 ]
	SubspaceRotationAdjust: set factor to 0.375
ElecMinimize: Iter:   5  G: -352.471415913452347  |grad|_K:  1.187e-06  alpha:  7.896e-01  linmin: -2.059e-04  t[s]:   9776.63
	Linear fluid (dielectric constant: 78.4, screening length: 8.12261 Bohr) occupying 0.717304 of unit cell:	Completed after 12 iterations at t[s]:   9826.41
	Linear fluid (dielectric constant: 78.4, screening length: 8.12261 Bohr) occupying 0.717324 of unit cell:	Completed after 3 iterations at t[s]:   9864.01
	FillingsUpdate:  mu: -0.160200000  nElectrons: 225.082602  magneticMoment: [ Abs: 1.30507  Tot: -1.06093 ]
	SubspaceRotationAdjust: set factor to 0.459
ElecMinimize: Iter:   6  G: -352.471675305307883  |grad|_K:  9.022e-07  alpha:  8.545e-01  linmin: -5.726e-05  t[s]:   9915.47
	Linear fluid (dielectric constant: 78.4, screening length: 8.12261 Bohr) occupying 0.717394 of unit cell:	Completed after 11 iterations at t[s]:   9964.53
	Linear fluid (dielectric constant: 78.4, screening length: 8.12261 Bohr) occupying 0.717371 of unit cell:	Completed after 8 iterations at t[s]:  10005.52
	FillingsUpdate:  mu: -0.160200000  nElectrons: 225.097494  magneticMoment: [ Abs: 1.29244  Tot: -1.06323 ]
	SubspaceRotationAdjust: set factor to 0.495
ElecMinimize: Iter:   7  G: -352.471773527650328  |grad|_K:  6.707e-07  alpha:  5.674e-01  linmin: -8.362e-06  t[s]:  10057.06
	Linear fluid (dielectric constant: 78.4, screening length: 8.12261 Bohr) occupying 0.717326 of unit cell:	Completed after 8 iterations at t[s]:  10104.29
	Linear fluid (dielectric constant: 78.4, screening length: 8.12261 Bohr) occupying 0.717325 of unit cell:	Completed after 0 iterations at t[s]:  10140.07
	FillingsUpdate:  mu: -0.160200000  nElectrons: 225.113066  magneticMoment: [ Abs: 1.28197  Tot: -1.06537 ]
	SubspaceRotationAdjust: set factor to 0.475
ElecMinimize: Iter:   8  G: -352.471828913390823  |grad|_K:  4.763e-07  alpha:  5.811e-01  linmin:  6.476e-05  t[s]:  10191.71
	Linear fluid (dielectric constant: 78.4, screening length: 8.12261 Bohr) occupying 0.717245 of unit cell:	Completed after 9 iterations at t[s]:  10239.96
	Linear fluid (dielectric constant: 78.4, screening length: 8.12261 Bohr) occupying 0.717259 of unit cell:	Completed after 3 iterations at t[s]:  10277.83
	FillingsUpdate:  mu: -0.160200000  nElectrons: 225.108982  magneticMoment: [ Abs: 1.27016  Tot: -1.05990 ]
	SubspaceRotationAdjust: set factor to 0.374
ElecMinimize: Iter:   9  G: -352.471851871038155  |grad|_K:  3.865e-07  alpha:  4.812e-01  linmin:  4.181e-05  t[s]:  10329.55
	Linear fluid (dielectric constant: 78.4, screening length: 8.12261 Bohr) occupying 0.717189 of unit cell:	Completed after 7 iterations at t[s]:  10376.28
	Linear fluid (dielectric constant: 78.4, screening length: 8.12261 Bohr) occupying 0.717197 of unit cell:	Completed after 2 iterations at t[s]:  10413.63
	FillingsUpdate:  mu: -0.160200000  nElectrons: 225.110247  magneticMoment: [ Abs: 1.26370  Tot: -1.05917 ]
	SubspaceRotationAdjust: set factor to 0.324
ElecMinimize: Iter:  10  G: -352.471865169887224  |grad|_K:  2.241e-07  alpha:  4.231e-01  linmin:  1.966e-05  t[s]:  10464.39
	Linear fluid (dielectric constant: 78.4, screening length: 8.12261 Bohr) occupying 0.717167 of unit cell:	Completed after 3 iterations at t[s]:  10508.26
	Linear fluid (dielectric constant: 78.4, screening length: 8.12261 Bohr) occupying 0.717157 of unit cell:	Completed after 2 iterations at t[s]:  10545.31
	FillingsUpdate:  mu: -0.160200000  nElectrons: 225.108919  magneticMoment: [ Abs: 1.25798  Tot: -1.05748 ]
	SubspaceRotationAdjust: set factor to 0.363
ElecMinimize: Iter:  11  G: -352.471871210921449  |grad|_K:  1.340e-07  alpha:  5.703e-01  linmin:  5.145e-08  t[s]:  10595.44
	Linear fluid (dielectric constant: 78.4, screening length: 8.12261 Bohr) occupying 0.717142 of unit cell:	Completed after 2 iterations at t[s]:  10638.26
	Linear fluid (dielectric constant: 78.4, screening length: 8.12261 Bohr) occupying 0.717139 of unit cell:	Completed after 0 iterations at t[s]:  10673.11
	FillingsUpdate:  mu: -0.160200000  nElectrons: 225.108434  magneticMoment: [ Abs: 1.25421  Tot: -1.05664 ]
	SubspaceRotationAdjust: set factor to 0.406
ElecMinimize: Iter:  12  G: -352.471873713985133  |grad|_K:  8.886e-08  alpha:  6.562e-01  linmin: -1.340e-04  t[s]:  10723.56
	Linear fluid (dielectric constant: 78.4, screening length: 8.12261 Bohr) occupying 0.717136 of unit cell:	Completed after 2 iterations at t[s]:  10766.57
	Linear fluid (dielectric constant: 78.4, screening length: 8.12261 Bohr) occupying 0.717136 of unit cell:	Completed after 0 iterations at t[s]:  10801.44
	FillingsUpdate:  mu: -0.160200000  nElectrons: 225.108758  magneticMoment: [ Abs: 1.25171  Tot: -1.05637 ]
	SubspaceRotationAdjust: set factor to 0.466
ElecMinimize: Iter:  13  G: -352.471874815106730  |grad|_K:  6.355e-08  alpha:  6.450e-01  linmin: -2.654e-05  t[s]:  10852.74
	Linear fluid (dielectric constant: 78.4, screening length: 8.12261 Bohr) occupying 0.717138 of unit cell:	Completed after 1 iterations at t[s]:  10894.92
	Linear fluid (dielectric constant: 78.4, screening length: 8.12261 Bohr) occupying 0.717138 of unit cell:	Completed after 0 iterations at t[s]:  10930.07
	FillingsUpdate:  mu: -0.160200000  nElectrons: 225.109108  magneticMoment: [ Abs: 1.24966  Tot: -1.05614 ]
	SubspaceRotationAdjust: set factor to 0.512
ElecMinimize: Iter:  14  G: -352.471875365779908  |grad|_K:  4.567e-08  alpha:  6.405e-01  linmin: -2.967e-05  t[s]:  10981.64
	Linear fluid (dielectric constant: 78.4, screening length: 8.12261 Bohr) occupying 0.717142 of unit cell:	Completed after 2 iterations at t[s]:  11025.14
	Linear fluid (dielectric constant: 78.4, screening length: 8.12261 Bohr) occupying 0.717142 of unit cell:	Completed after 0 iterations at t[s]:  11060.19
	FillingsUpdate:  mu: -0.160200000  nElectrons: 225.109641  magneticMoment: [ Abs: 1.24847  Tot: -1.05614 ]
	SubspaceRotationAdjust: set factor to 0.484
ElecMinimize: Iter:  15  G: -352.471875597791097  |grad|_K:  3.357e-08  alpha:  5.256e-01  linmin:  1.661e-05  t[s]:  11111.52
	Linear fluid (dielectric constant: 78.4, screening length: 8.12261 Bohr) occupying 0.717145 of unit cell:	Completed after 1 iterations at t[s]:  11153.97
	Linear fluid (dielectric constant: 78.4, screening length: 8.12261 Bohr) occupying 0.717145 of unit cell:	Completed after 0 iterations at t[s]:  11188.90
	FillingsUpdate:  mu: -0.160200000  nElectrons: 225.109410  magneticMoment: [ Abs: 1.24725  Tot: -1.05578 ]
	SubspaceRotationAdjust: set factor to 0.522
ElecMinimize: Iter:  16  G: -352.471875723505946  |grad|_K:  2.142e-08  alpha:  5.288e-01  linmin: -2.578e-04  t[s]:  11240.30
	Linear fluid (dielectric constant: 78.4, screening length: 8.12261 Bohr) occupying 0.717146 of unit cell:	Completed after 1 iterations at t[s]:  11282.65
	Linear fluid (dielectric constant: 78.4, screening length: 8.12261 Bohr) occupying 0.717146 of unit cell:	Completed after 0 iterations at t[s]:  11317.79
	FillingsUpdate:  mu: -0.160200000  nElectrons: 225.109354  magneticMoment: [ Abs: 1.24679  Tot: -1.05567 ]
	SubspaceRotationAdjust: set factor to 0.597
ElecMinimize: Iter:  17  G: -352.471875752563164  |grad|_K:  1.890e-08  alpha:  3.665e-01  linmin: -4.866e-04  t[s]:  11368.21
	Linear fluid (dielectric constant: 78.4, screening length: 8.12261 Bohr) occupying 0.717147 of unit cell:	Completed after 0 iterations at t[s]:  11409.33
	Linear fluid (dielectric constant: 78.4, screening length: 8.12261 Bohr) occupying 0.717148 of unit cell:	Completed after 1 iterations at t[s]:  11445.94
	FillingsUpdate:  mu: -0.160200000  nElectrons: 225.109660  magneticMoment: [ Abs: 1.24624  Tot: -1.05574 ]
	SubspaceRotationAdjust: set factor to 0.519
ElecMinimize: Iter:  18  G: -352.471875771561713  |grad|_K:  2.213e-08  alpha:  6.122e-01  linmin:  5.049e-04  t[s]:  11497.26
ElecMinimize: Converged (|Delta G|<1.000000e-07 for 2 iters).
Setting wave functions to eigenvectors of Hamiltonian
Converging empty states (this may take a while): |deigs|: 1.288e-03
Single-point solvation energy estimate, DeltaG = -0.022287356143636

Computing DFT-D3 correction:
# coordination-number C 3.300 3.321 3.333 3.331 3.312 3.290 3.318 3.517 3.329 3.312 3.303 3.334 3.301 3.299 3.323 3.656 3.263 3.300 3.317 3.332 3.326 3.303 3.300 3.327 3.334 3.318 3.300 3.268 3.517 3.323 3.301 3.306 3.315 3.300 3.312 3.326 3.644 3.328 3.288 3.311 3.330 3.332 3.322 3.301 2.007
# coordination-number N 3.168 3.176 3.184 3.181
# coordination-number Ti 6.403
# coordination-number O 1.022 1.991
# coordination-number H 0.992 0.993
# diagonal-C6 C 24.28 24.07 23.94 23.97 24.17 24.37 24.10 21.39 23.99 24.16 24.26 23.93 24.27 24.29 24.05 19.68 24.61 24.28 24.11 23.96 24.02 24.25 24.28 24.01 23.93 24.10 24.29 24.57 21.39 24.05 24.27 24.22 24.13 24.28 24.17 24.02 19.79 24.00 24.40 24.17 23.98 23.95 24.06 24.28 29.48
# diagonal-C6 N 15.60 15.60 15.60 15.60
# diagonal-C6 Ti 321.59
# diagonal-C6 O 12.79 10.41
# diagonal-C6 H 3.09 3.09
EvdW_6 =   -0.043016
EvdW_8 =   -0.033251
Completed 1 of 16 configurations.

Computing DFT-D3 correction:
# coordination-number C 3.300 3.321 3.333 3.331 3.312 3.290 3.318 3.517 3.329 3.312 3.303 3.334 3.301 3.299 3.323 3.656 3.263 3.300 3.317 3.332 3.326 3.303 3.300 3.327 3.334 3.318 3.300 3.268 3.517 3.323 3.301 3.306 3.315 3.300 3.312 3.326 3.644 3.328 3.288 3.311 3.330 3.332 3.322 3.301 2.007
# coordination-number N 3.168 3.176 3.184 3.181
# coordination-number Ti 6.403
# coordination-number O 1.022 1.991
# coordination-number H 0.992 0.993
# diagonal-C6 C 24.28 24.07 23.94 23.97 24.17 24.37 24.11 21.39 23.99 24.16 24.26 23.93 24.27 24.29 24.05 19.68 24.61 24.28 24.11 23.96 24.02 24.25 24.28 24.01 23.93 24.10 24.29 24.57 21.39 24.05 24.27 24.22 24.13 24.28 24.17 24.02 19.79 24.00 24.40 24.17 23.98 23.95 24.06 24.28 29.48
# diagonal-C6 N 15.60 15.60 15.60 15.60
# diagonal-C6 Ti 321.59
# diagonal-C6 O 12.79 10.41
# diagonal-C6 H 3.09 3.09
EvdW_6 =   -0.043016
EvdW_8 =   -0.033253
Shifting auxilliary hamiltonian by -0.000008 to set nElectrons=225.109660

-------- Electronic minimization -----------
	Linear fluid (dielectric constant: 78.4, screening length: 8.12261 Bohr) occupying 0.717143 of unit cell:	Completed after 6 iterations at t[s]:  12286.93
	FillingsUpdate:  mu: -0.160200000  nElectrons: 225.109660  magneticMoment: [ Abs: 1.24603  Tot: -1.05566 ]
ElecMinimize: Iter:   0  G: -352.471836253575873  |grad|_K:  3.746e-07  alpha:  1.000e+00
	Linear fluid (dielectric constant: 78.4, screening length: 8.12261 Bohr) occupying 0.717137 of unit cell:	Completed after 7 iterations at t[s]:  12391.40
	Linear fluid (dielectric constant: 78.4, screening length: 8.12261 Bohr) occupying 0.717140 of unit cell:	Completed after 3 iterations at t[s]:  12429.62
	FillingsUpdate:  mu: -0.160200000  nElectrons: 225.112954  magneticMoment: [ Abs: 1.24767  Tot: -1.05754 ]
	SubspaceRotationAdjust: set factor to 0.414
ElecMinimize: Iter:   1  G: -352.471853566728555  |grad|_K:  2.569e-07  alpha:  5.810e-01  linmin:  2.084e-05  t[s]:  12482.94
	Linear fluid (dielectric constant: 78.4, screening length: 8.12261 Bohr) occupying 0.717135 of unit cell:	Completed after 7 iterations at t[s]:  12529.68
	Linear fluid (dielectric constant: 78.4, screening length: 8.12261 Bohr) occupying 0.717137 of unit cell:	Completed after 4 iterations at t[s]:  12568.59
	FillingsUpdate:  mu: -0.160200000  nElectrons: 225.110811  magneticMoment: [ Abs: 1.24675  Tot: -1.05640 ]
	SubspaceRotationAdjust: set factor to 0.298
ElecMinimize: Iter:   2  G: -352.471857189055299  |grad|_K:  1.356e-07  alpha:  2.642e-01  linmin:  5.474e-05  t[s]:  12621.69
	Linear fluid (dielectric constant: 78.4, screening length: 8.12261 Bohr) occupying 0.717136 of unit cell:	Completed after 3 iterations at t[s]:  12665.75
	Linear fluid (dielectric constant: 78.4, screening length: 8.12261 Bohr) occupying 0.717135 of unit cell:	Completed after 2 iterations at t[s]:  12703.50
	FillingsUpdate:  mu: -0.160200000  nElectrons: 225.112286  magneticMoment: [ Abs: 1.24737  Tot: -1.05714 ]
	SubspaceRotationAdjust: set factor to 0.407
ElecMinimize: Iter:   3  G: -352.471859262889893  |grad|_K:  7.051e-08  alpha:  5.140e-01  linmin: -1.892e-04  t[s]:  12754.63
	Linear fluid (dielectric constant: 78.4, screening length: 8.12261 Bohr) occupying 0.717134 of unit cell:	Completed after 2 iterations at t[s]:  12798.04
	Linear fluid (dielectric constant: 78.4, screening length: 8.12261 Bohr) occupying 0.717133 of unit cell:	Completed after 0 iterations at t[s]:  12833.34
	FillingsUpdate:  mu: -0.160200000  nElectrons: 225.113259  magneticMoment: [ Abs: 1.24778  Tot: -1.05763 ]
	SubspaceRotationAdjust: set factor to 0.448
ElecMinimize: Iter:   4  G: -352.471860022860255  |grad|_K:  3.986e-08  alpha:  6.558e-01  linmin: -3.021e-04  t[s]:  12886.59
	Linear fluid (dielectric constant: 78.4, screening length: 8.12261 Bohr) occupying 0.717131 of unit cell:	Completed after 2 iterations at t[s]:  12930.08
	Linear fluid (dielectric constant: 78.4, screening length: 8.12261 Bohr) occupying 0.717132 of unit cell:	Completed after 0 iterations at t[s]:  12965.61
	FillingsUpdate:  mu: -0.160200000  nElectrons: 225.112968  magneticMoment: [ Abs: 1.24767  Tot: -1.05748 ]
	SubspaceRotationAdjust: set factor to 0.396
ElecMinimize: Iter:   5  G: -352.471860212035665  |grad|_K:  4.327e-08  alpha:  4.840e-01  linmin:  2.204e-04  t[s]:  13016.68
	Linear fluid (dielectric constant: 78.4, screening length: 8.12261 Bohr) occupying 0.717130 of unit cell:	Completed after 1 iterations at t[s]:  13059.47
	Linear fluid (dielectric constant: 78.4, screening length: 8.12261 Bohr) occupying 0.717130 of unit cell:	Completed after 0 iterations at t[s]:  13094.80
	FillingsUpdate:  mu: -0.160200000  nElectrons: 225.113158  magneticMoment: [ Abs: 1.24780  Tot: -1.05762 ]
	SubspaceRotationAdjust: set factor to 0.368
ElecMinimize: Iter:   6  G: -352.471860310580951  |grad|_K:  2.074e-08  alpha:  3.374e-01  linmin: -4.046e-05  t[s]:  13146.89
	Linear fluid (dielectric constant: 78.4, screening length: 8.12261 Bohr) occupying 0.717130 of unit cell:	Completed after 0 iterations at t[s]:  13188.69
	Linear fluid (dielectric constant: 78.4, screening length: 8.12261 Bohr) occupying 0.717129 of unit cell:	Completed after 1 iterations at t[s]:  13225.43
	FillingsUpdate:  mu: -0.160200000  nElectrons: 225.112948  magneticMoment: [ Abs: 1.24775  Tot: -1.05755 ]
	SubspaceRotationAdjust: set factor to 0.38
ElecMinimize: Iter:   7  G: -352.471860363943961  |grad|_K:  1.493e-08  alpha:  8.523e-01  linmin:  2.765e-04  t[s]:  13278.71
ElecMinimize: Converged (|Delta G|<1.000000e-07 for 2 iters).
Setting wave functions to eigenvectors of Hamiltonian
Converging empty states (this may take a while): |deigs|: 1.087e-07

Computing DFT-D3 correction:
# coordination-number C 3.300 3.321 3.333 3.331 3.312 3.290 3.318 3.517 3.329 3.312 3.303 3.334 3.301 3.299 3.323 3.656 3.263 3.300 3.317 3.332 3.326 3.303 3.300 3.327 3.334 3.318 3.300 3.268 3.517 3.323 3.301 3.306 3.315 3.300 3.312 3.326 3.644 3.328 3.288 3.311 3.330 3.332 3.322 3.301 2.007
# coordination-number N 3.168 3.176 3.184 3.181
# coordination-number Ti 6.403
# coordination-number O 1.022 1.991
# coordination-number H 0.992 0.993
# diagonal-C6 C 24.28 24.07 23.94 23.97 24.17 24.37 24.11 21.39 23.99 24.16 24.26 23.93 24.27 24.29 24.05 19.68 24.61 24.28 24.11 23.96 24.02 24.25 24.28 24.01 23.93 24.10 24.29 24.57 21.39 24.05 24.27 24.22 24.13 24.28 24.17 24.02 19.79 24.00 24.40 24.17 23.98 23.95 24.06 24.28 29.48
# diagonal-C6 N 15.60 15.60 15.60 15.60
# diagonal-C6 Ti 321.59
# diagonal-C6 O 12.79 10.41
# diagonal-C6 H 3.09 3.09
EvdW_6 =   -0.043016
EvdW_8 =   -0.033253
Completed 2 of 16 configurations.

Computing DFT-D3 correction:
# coordination-number C 3.300 3.321 3.333 3.331 3.312 3.290 3.318 3.517 3.329 3.312 3.303 3.334 3.301 3.299 3.323 3.656 3.263 3.300 3.317 3.332 3.326 3.303 3.300 3.327 3.334 3.318 3.300 3.268 3.517 3.323 3.301 3.306 3.315 3.300 3.312 3.326 3.644 3.328 3.288 3.311 3.330 3.332 3.322 3.301 2.007
# coordination-number N 3.168 3.176 3.184 3.181
# coordination-number Ti 6.403
# coordination-number O 1.022 1.991
# coordination-number H 0.992 0.993
# diagonal-C6 C 24.28 24.07 23.94 23.97 24.17 24.37 24.11 21.39 23.99 24.16 24.26 23.93 24.27 24.29 24.05 19.68 24.61 24.28 24.11 23.96 24.02 24.25 24.28 24.01 23.93 24.10 24.29 24.57 21.39 24.05 24.27 24.22 24.13 24.28 24.17 24.02 19.79 24.00 24.40 24.17 23.98 23.95 24.06 24.28 29.48
# diagonal-C6 N 15.60 15.60 15.60 15.60
# diagonal-C6 Ti 321.59
# diagonal-C6 O 12.79 10.41
# diagonal-C6 H 3.09 3.09
EvdW_6 =   -0.043017
EvdW_8 =   -0.033250
Shifting auxilliary hamiltonian by 0.000001 to set nElectrons=225.112948

-------- Electronic minimization -----------
	Linear fluid (dielectric constant: 78.4, screening length: 8.12261 Bohr) occupying 0.717122 of unit cell:	Completed after 6 iterations at t[s]:  13488.72
	FillingsUpdate:  mu: -0.160200000  nElectrons: 225.112948  magneticMoment: [ Abs: 1.24764  Tot: -1.05755 ]
ElecMinimize: Iter:   0  G: -352.471827498892935  |grad|_K:  4.328e-07  alpha:  1.000e+00
	Linear fluid (dielectric constant: 78.4, screening length: 8.12261 Bohr) occupying 0.717123 of unit cell:	Completed after 4 iterations at t[s]:  13592.29
	Linear fluid (dielectric constant: 78.4, screening length: 8.12261 Bohr) occupying 0.717122 of unit cell:	Completed after 2 iterations at t[s]:  13629.95
	FillingsUpdate:  mu: -0.160200000  nElectrons: 225.112956  magneticMoment: [ Abs: 1.24787  Tot: -1.05800 ]
	SubspaceRotationAdjust: set factor to 0.524
ElecMinimize: Iter:   1  G: -352.471857093780557  |grad|_K:  1.592e-07  alpha:  7.458e-01  linmin:  1.221e-04  t[s]:  13680.83
	Linear fluid (dielectric constant: 78.4, screening length: 8.12261 Bohr) occupying 0.717122 of unit cell:	Completed after 2 iterations at t[s]:  13724.55
	Linear fluid (dielectric constant: 78.4, screening length: 8.12261 Bohr) occupying 0.717122 of unit cell:	Completed after 0 iterations at t[s]:  13760.73
	FillingsUpdate:  mu: -0.160200000  nElectrons: 225.112953  magneticMoment: [ Abs: 1.24799  Tot: -1.05836 ]
	SubspaceRotationAdjust: set factor to 0.74
ElecMinimize: Iter:   2  G: -352.471862216703755  |grad|_K:  9.898e-08  alpha:  9.510e-01  linmin: -5.088e-04  t[s]:  13812.57
	Linear fluid (dielectric constant: 78.4, screening length: 8.12261 Bohr) occupying 0.717122 of unit cell:	Completed after 3 iterations at t[s]:  13857.05
	Linear fluid (dielectric constant: 78.4, screening length: 8.12261 Bohr) occupying 0.717122 of unit cell:	Completed after 0 iterations at t[s]:  13892.46
	FillingsUpdate:  mu: -0.160200000  nElectrons: 225.113570  magneticMoment: [ Abs: 1.24844  Tot: -1.05904 ]
	SubspaceRotationAdjust: set factor to 0.647
ElecMinimize: Iter:   3  G: -352.471863742098094  |grad|_K:  9.635e-08  alpha:  7.107e-01  linmin:  6.322e-04  t[s]:  13943.24
	Linear fluid (dielectric constant: 78.4, screening length: 8.12261 Bohr) occupying 0.717121 of unit cell:	Completed after 4 iterations at t[s]:  13988.44
	Linear fluid (dielectric constant: 78.4, screening length: 8.12261 Bohr) occupying 0.717121 of unit cell:	Completed after 3 iterations at t[s]:  14027.29
	FillingsUpdate:  mu: -0.160200000  nElectrons: 225.112831  magneticMoment: [ Abs: 1.24813  Tot: -1.05872 ]
	SubspaceRotationAdjust: set factor to 0.377
ElecMinimize: Iter:   4  G: -352.471863977527732  |grad|_K:  5.931e-08  alpha:  1.754e-01  linmin:  1.030e-03  t[s]:  14079.04
	Linear fluid (dielectric constant: 78.4, screening length: 8.12261 Bohr) occupying 0.717121 of unit cell:	Completed after 0 iterations at t[s]:  14120.82
ElecMinimize: 	Predicted alpha/alphaT>3.000000, increasing alphaT to 5.263313e-01.
	Linear fluid (dielectric constant: 78.4, screening length: 8.12261 Bohr) occupying 0.717121 of unit cell:	Completed after 2 iterations at t[s]:  14158.41
	Linear fluid (dielectric constant: 78.4, screening length: 8.12261 Bohr) occupying 0.717121 of unit cell:	Completed after 0 iterations at t[s]:  14193.93
	FillingsUpdate:  mu: -0.160200000  nElectrons: 225.113370  magneticMoment: [ Abs: 1.24841  Tot: -1.05913 ]
	SubspaceRotationAdjust: set factor to 0.264
ElecMinimize: Iter:   5  G: -352.471864241612082  |grad|_K:  3.228e-08  alpha:  4.015e-01  linmin:  3.231e-04  t[s]:  14246.01
	Linear fluid (dielectric constant: 78.4, screening length: 8.12261 Bohr) occupying 0.717121 of unit cell:	Completed after 0 iterations at t[s]:  14288.12
	Linear fluid (dielectric constant: 78.4, screening length: 8.12261 Bohr) occupying 0.717122 of unit cell:	Completed after 0 iterations at t[s]:  14323.49
	FillingsUpdate:  mu: -0.160200000  nElectrons: 225.113375  magneticMoment: [ Abs: 1.24841  Tot: -1.05918 ]
	SubspaceRotationAdjust: set factor to 0.347
ElecMinimize: Iter:   6  G: -352.471864367080173  |grad|_K:  1.702e-08  alpha:  5.486e-01  linmin: -2.815e-03  t[s]:  14374.76
	Linear fluid (dielectric constant: 78.4, screening length: 8.12261 Bohr) occupying 0.717122 of unit cell:	Completed after 2 iterations at t[s]:  14418.26
	Linear fluid (dielectric constant: 78.4, screening length: 8.12261 Bohr) occupying 0.717122 of unit cell:	Completed after 0 iterations at t[s]:  14454.06
ElecMinimize: 	Step increased G by 8.048062e-09, reducing alpha to 2.376046e-02.
	Linear fluid (dielectric constant: 78.4, screening length: 8.12261 Bohr) occupying 0.717122 of unit cell:	Completed after 0 iterations at t[s]:  14538.87
ElecMinimize: 	Step increased G by 1.481880e-08, reducing alpha to 2.376046e-03.
	Linear fluid (dielectric constant: 78.4, screening length: 8.12261 Bohr) occupying 0.717122 of unit cell:	Completed after 0 iterations at t[s]:  14621.86
ElecMinimize: 	Step increased G by 1.593497e-08, reducing alpha to 2.376046e-04.
ElecMinimize: 	Step failed to reduce G after 3 attempts. Quitting step.
ElecMinimize: 	Undoing step.
	Linear fluid (dielectric constant: 78.4, screening length: 8.12261 Bohr) occupying 0.717122 of unit cell:	Completed after 0 iterations at t[s]:  14706.12
ElecMinimize: 	Step failed: resetting search direction.
	FillingsUpdate:  mu: -0.160200000  nElectrons: 225.113374  magneticMoment: [ Abs: 1.24841  Tot: -1.05918 ]
	SubspaceRotationAdjust: set factor to 0.314
ElecMinimize: Iter:   7  G: -352.471864351137810  |grad|_K:  2.642e-08  alpha:  2.376e-04
	Linear fluid (dielectric constant: 78.4, screening length: 8.12261 Bohr) occupying 0.717121 of unit cell:	Completed after 2 iterations at t[s]:  14801.16
	Linear fluid (dielectric constant: 78.4, screening length: 8.12261 Bohr) occupying 0.717121 of unit cell:	Completed after 0 iterations at t[s]:  14836.47
	FillingsUpdate:  mu: -0.160200000  nElectrons: 225.113531  magneticMoment: [ Abs: 1.24850  Tot: -1.05928 ]
	SubspaceRotationAdjust: set factor to 0.221
ElecMinimize: Iter:   8  G: -352.471864398900721  |grad|_K:  3.688e-08  alpha:  2.070e-01  linmin:  1.097e-02  t[s]:  14887.28
	Linear fluid (dielectric constant: 78.4, screening length: 8.12261 Bohr) occupying 0.717121 of unit cell:	Completed after 0 iterations at t[s]:  14929.04
	Linear fluid (dielectric constant: 78.4, screening length: 8.12261 Bohr) occupying 0.717121 of unit cell:	Completed after 0 iterations at t[s]:  14964.60
	FillingsUpdate:  mu: -0.160200000  nElectrons: 225.113533  magneticMoment: [ Abs: 1.24851  Tot: -1.05929 ]
	SubspaceRotationAdjust: set factor to 0.196
ElecMinimize: Iter:   9  G: -352.471864403352129  |grad|_K:  3.302e-08  alpha:  9.376e-02  linmin:  8.555e-06  t[s]:  15015.60
ElecMinimize: Converged (|Delta G|<1.000000e-07 for 2 iters).
Setting wave functions to eigenvectors of Hamiltonian
Converging empty states (this may take a while): |deigs|: 3.033e-08

Computing DFT-D3 correction:
# coordination-number C 3.300 3.321 3.333 3.331 3.312 3.290 3.318 3.517 3.329 3.312 3.303 3.334 3.301 3.299 3.323 3.656 3.263 3.300 3.317 3.332 3.326 3.303 3.300 3.327 3.334 3.318 3.300 3.268 3.517 3.323 3.301 3.306 3.315 3.300 3.312 3.326 3.644 3.328 3.288 3.311 3.330 3.332 3.322 3.301 2.007
# coordination-number N 3.168 3.176 3.184 3.181
# coordination-number Ti 6.403
# coordination-number O 1.022 1.991
# coordination-number H 0.992 0.993
# diagonal-C6 C 24.28 24.07 23.94 23.97 24.17 24.37 24.11 21.39 23.99 24.16 24.26 23.93 24.27 24.29 24.05 19.68 24.61 24.28 24.11 23.96 24.02 24.25 24.28 24.01 23.93 24.10 24.29 24.57 21.39 24.05 24.27 24.22 24.13 24.28 24.17 24.02 19.79 24.00 24.40 24.17 23.98 23.95 24.06 24.28 29.48
# diagonal-C6 N 15.60 15.60 15.60 15.60
# diagonal-C6 Ti 321.59
# diagonal-C6 O 12.79 10.41
# diagonal-C6 H 3.09 3.09
EvdW_6 =   -0.043017
EvdW_8 =   -0.033250
Completed 3 of 16 configurations.

Computing DFT-D3 correction:
# coordination-number C 3.300 3.321 3.333 3.331 3.312 3.290 3.318 3.517 3.329 3.312 3.303 3.334 3.301 3.299 3.323 3.656 3.263 3.300 3.317 3.332 3.326 3.303 3.300 3.327 3.334 3.318 3.300 3.268 3.517 3.323 3.301 3.306 3.315 3.300 3.312 3.326 3.644 3.328 3.288 3.311 3.330 3.332 3.322 3.301 2.005
# coordination-number N 3.168 3.176 3.183 3.181
# coordination-number Ti 6.402
# coordination-number O 1.022 1.991
# coordination-number H 0.992 0.993
# diagonal-C6 C 24.28 24.07 23.94 23.97 24.17 24.37 24.11 21.39 23.99 24.16 24.26 23.93 24.27 24.29 24.05 19.68 24.61 24.28 24.11 23.96 24.02 24.25 24.28 24.01 23.93 24.10 24.29 24.57 21.39 24.05 24.27 24.22 24.13 24.28 24.17 24.02 19.79 24.00 24.40 24.17 23.98 23.95 24.06 24.28 29.48
# diagonal-C6 N 15.60 15.60 15.60 15.60
# diagonal-C6 Ti 321.59
# diagonal-C6 O 12.79 10.41
# diagonal-C6 H 3.09 3.09
EvdW_6 =   -0.043016
EvdW_8 =   -0.033248
Shifting auxilliary hamiltonian by -0.000060 to set nElectrons=225.113533

-------- Electronic minimization -----------
	Linear fluid (dielectric constant: 78.4, screening length: 8.12261 Bohr) occupying 0.717120 of unit cell:	Completed after 6 iterations at t[s]:  15194.22
	FillingsUpdate:  mu: -0.160200000  nElectrons: 225.113533  magneticMoment: [ Abs: 1.24733  Tot: -1.05845 ]
ElecMinimize: Iter:   0  G: -352.471768131979729  |grad|_K:  6.383e-07  alpha:  1.000e+00
[...]
disp C   0.000000000000000   0.000000000000000   0.000000000000000
disp C   0.000000000000000   0.000000000000000   0.000000000000000
disp C   0.000000000000000   0.000000000000000   0.000000000000000
disp C   0.000000000000000   0.000000000000000   0.000000000000000
disp C   0.000000000000000   0.000000000000000   0.000000000000000
disp C   0.003335141892426   0.003349849388928   0.004460049388335
disp N   0.000000000000000   0.000000000000000   0.000000000000000
disp N   0.000000000000000   0.000000000000000   0.000000000000000
disp N   0.000000000000000   0.000000000000000   0.000000000000000
disp N   0.000000000000000   0.000000000000000   0.000000000000000
disp Ti   0.000000000000000   0.000000000000000   0.000000000000000
disp O  -0.000751942109395  -0.000647661738913  -0.000783893405347
disp O   0.000085585387330   0.000231945474284  -0.000121780266829
disp H   0.001548778388901   0.001099531979308  -0.001766924709163
disp H   0.000288743174040   0.001570701693150   0.002253113254414

Real mode 8:
Frequency: 0.007082 Eh [ 1554 cm^-1 ]
Degeneracy: 1 of 1
IR intensity: 0.1443 e^2/amu [ 140.6 km/mol ]
Displacements:
disp C   0.000000000000000   0.000000000000000   0.000000000000000
disp C   0.000000000000000   0.000000000000000   0.000000000000000
disp C   0.000000000000000   0.000000000000000   0.000000000000000
disp C   0.000000000000000   0.000000000000000   0.000000000000000
disp C   0.000000000000000   0.000000000000000   0.000000000000000
disp C   0.000000000000000   0.000000000000000   0.000000000000000
disp C   0.000000000000000   0.000000000000000   0.000000000000000
disp C   0.000000000000000   0.000000000000000   0.000000000000000
disp C   0.000000000000000   0.000000000000000   0.000000000000000
disp C   0.000000000000000   0.000000000000000   0.000000000000000
disp C   0.000000000000000   0.000000000000000   0.000000000000000
disp C   0.000000000000000   0.000000000000000   0.000000000000000
disp C   0.000000000000000   0.000000000000000   0.000000000000000
disp C   0.000000000000000   0.000000000000000   0.000000000000000
disp C   0.000000000000000   0.000000000000000   0.000000000000000
disp C   0.000000000000000   0.000000000000000   0.000000000000000
disp C   0.000000000000000   0.000000000000000   0.000000000000000
disp C   0.000000000000000   0.000000000000000   0.000000000000000
disp C   0.000000000000000   0.000000000000000   0.000000000000000
disp C   0.000000000000000   0.000000000000000   0.000000000000000
disp C   0.000000000000000   0.000000000000000   0.000000000000000
disp C   0.000000000000000   0.000000000000000   0.000000000000000
disp C   0.000000000000000   0.000000000000000   0.000000000000000
disp C   0.000000000000000   0.000000000000000   0.000000000000000
disp C   0.000000000000000   0.000000000000000   0.000000000000000
disp C   0.000000000000000   0.000000000000000   0.000000000000000
disp C   0.000000000000000   0.000000000000000   0.000000000000000
disp C   0.000000000000000   0.000000000000000   0.000000000000000
disp C   0.000000000000000   0.000000000000000   0.000000000000000
disp C   0.000000000000000   0.000000000000000   0.000000000000000
disp C   0.000000000000000   0.000000000000000   0.000000000000000
disp C   0.000000000000000   0.000000000000000   0.000000000000000
disp C   0.000000000000000   0.000000000000000   0.000000000000000
disp C   0.000000000000000   0.000000000000000   0.000000000000000
disp C   0.000000000000000   0.000000000000000   0.000000000000000
disp C   0.000000000000000   0.000000000000000   0.000000000000000
disp C   0.000000000000000   0.000000000000000   0.000000000000000
disp C   0.000000000000000   0.000000000000000   0.000000000000000
disp C   0.000000000000000   0.000000000000000   0.000000000000000
disp C   0.000000000000000   0.000000000000000   0.000000000000000
disp C   0.000000000000000   0.000000000000000   0.000000000000000
disp C   0.000000000000000   0.000000000000000   0.000000000000000
disp C   0.000000000000000   0.000000000000000   0.000000000000000
disp C   0.000000000000000   0.000000000000000   0.000000000000000
disp C  -0.000002327229853   0.000036063837193  -0.000015732285321
disp N   0.000000000000000   0.000000000000000   0.000000000000000
disp N   0.000000000000000   0.000000000000000   0.000000000000000
disp N   0.000000000000000   0.000000000000000   0.000000000000000
disp N   0.000000000000000   0.000000000000000   0.000000000000000
disp Ti   0.000000000000000   0.000000000000000   0.000000000000000
disp O   0.000019590840166   0.000016484254225  -0.000026992144112
disp O   0.000190045560443  -0.000683101358052   0.001675572090702
disp H   0.007548240624231   0.009950033982474  -0.009442528375567
disp H  -0.008175249387216  -0.001152985311319  -0.013355452846587

Real mode 9:
Frequency: 0.009067 Eh [ 1990 cm^-1 ]
Degeneracy: 1 of 1
IR intensity: 7.2360 e^2/amu [ 7054.3 km/mol ]
Displacements:
disp C   0.000000000000000   0.000000000000000   0.000000000000000
disp C   0.000000000000000   0.000000000000000   0.000000000000000
disp C   0.000000000000000   0.000000000000000   0.000000000000000
disp C   0.000000000000000   0.000000000000000   0.000000000000000
disp C   0.000000000000000   0.000000000000000   0.000000000000000
disp C   0.000000000000000   0.000000000000000   0.000000000000000
disp C   0.000000000000000   0.000000000000000   0.000000000000000
disp C   0.000000000000000   0.000000000000000   0.000000000000000
disp C   0.000000000000000   0.000000000000000   0.000000000000000
disp C   0.000000000000000   0.000000000000000   0.000000000000000
disp C   0.000000000000000   0.000000000000000   0.000000000000000
disp C   0.000000000000000   0.000000000000000   0.000000000000000
disp C   0.000000000000000   0.000000000000000   0.000000000000000
disp C   0.000000000000000   0.000000000000000   0.000000000000000
disp C   0.000000000000000   0.000000000000000   0.000000000000000
disp C   0.000000000000000   0.000000000000000   0.000000000000000
disp C   0.000000000000000   0.000000000000000   0.000000000000000
disp C   0.000000000000000   0.000000000000000   0.000000000000000
disp C   0.000000000000000   0.000000000000000   0.000000000000000
disp C   0.000000000000000   0.000000000000000   0.000000000000000
disp C   0.000000000000000   0.000000000000000   0.000000000000000
disp C   0.000000000000000   0.000000000000000   0.000000000000000
disp C   0.000000000000000   0.000000000000000   0.000000000000000
disp C   0.000000000000000   0.000000000000000   0.000000000000000
disp C   0.000000000000000   0.000000000000000   0.000000000000000
disp C   0.000000000000000   0.000000000000000   0.000000000000000
disp C   0.000000000000000   0.000000000000000   0.000000000000000
disp C   0.000000000000000   0.000000000000000   0.000000000000000
disp C   0.000000000000000   0.000000000000000   0.000000000000000
disp C   0.000000000000000   0.000000000000000   0.000000000000000
disp C   0.000000000000000   0.000000000000000   0.000000000000000
disp C   0.000000000000000   0.000000000000000   0.000000000000000
disp C   0.000000000000000   0.000000000000000   0.000000000000000
disp C   0.000000000000000   0.000000000000000   0.000000000000000
disp C   0.000000000000000   0.000000000000000   0.000000000000000
disp C   0.000000000000000   0.000000000000000   0.000000000000000
disp C   0.000000000000000   0.000000000000000   0.000000000000000
disp C   0.000000000000000   0.000000000000000   0.000000000000000
disp C   0.000000000000000   0.000000000000000   0.000000000000000
disp C   0.000000000000000   0.000000000000000   0.000000000000000
disp C   0.000000000000000   0.000000000000000   0.000000000000000
disp C   0.000000000000000   0.000000000000000   0.000000000000000
disp C   0.000000000000000   0.000000000000000   0.000000000000000
disp C   0.000000000000000   0.000000000000000   0.000000000000000
disp C   0.002567266530926   0.002326586763588  -0.003768866684390
disp N   0.000000000000000   0.000000000000000   0.000000000000000
disp N   0.000000000000000   0.000000000000000   0.000000000000000
disp N   0.000000000000000   0.000000000000000   0.000000000000000
disp N   0.000000000000000   0.000000000000000   0.000000000000000
disp Ti   0.000000000000000   0.000000000000000   0.000000000000000
disp O  -0.001893342236736  -0.001753871219819   0.002819690078432
disp O  -0.000020933286230   0.000006372159312   0.000002789009008
disp H   0.000011013372709  -0.000016768026012  -0.000034360407867
disp H   0.000057262816531  -0.000038882736118  -0.000064485204051

Real mode 10:
Frequency: 0.017138 Eh [ 3761 cm^-1 ]
Degeneracy: 1 of 1
IR intensity: 0.4469 e^2/amu [ 435.7 km/mol ]
Displacements:
disp C   0.000000000000000   0.000000000000000   0.000000000000000
disp C   0.000000000000000   0.000000000000000   0.000000000000000
disp C   0.000000000000000   0.000000000000000   0.000000000000000
disp C   0.000000000000000   0.000000000000000   0.000000000000000
disp C   0.000000000000000   0.000000000000000   0.000000000000000
disp C   0.000000000000000   0.000000000000000   0.000000000000000
disp C   0.000000000000000   0.000000000000000   0.000000000000000
disp C   0.000000000000000   0.000000000000000   0.000000000000000
disp C   0.000000000000000   0.000000000000000   0.000000000000000
disp C   0.000000000000000   0.000000000000000   0.000000000000000
disp C   0.000000000000000   0.000000000000000   0.000000000000000
disp C   0.000000000000000   0.000000000000000   0.000000000000000
disp C   0.000000000000000   0.000000000000000   0.000000000000000
disp C   0.000000000000000   0.000000000000000   0.000000000000000
disp C   0.000000000000000   0.000000000000000   0.000000000000000
disp C   0.000000000000000   0.000000000000000   0.000000000000000
disp C   0.000000000000000   0.000000000000000   0.000000000000000
disp C   0.000000000000000   0.000000000000000   0.000000000000000
disp C   0.000000000000000   0.000000000000000   0.000000000000000
disp C   0.000000000000000   0.000000000000000   0.000000000000000
disp C   0.000000000000000   0.000000000000000   0.000000000000000
disp C   0.000000000000000   0.000000000000000   0.000000000000000
disp C   0.000000000000000   0.000000000000000   0.000000000000000
disp C   0.000000000000000   0.000000000000000   0.000000000000000
disp C   0.000000000000000   0.000000000000000   0.000000000000000
disp C   0.000000000000000   0.000000000000000   0.000000000000000
disp C   0.000000000000000   0.000000000000000   0.000000000000000
disp C   0.000000000000000   0.000000000000000   0.000000000000000
disp C   0.000000000000000   0.000000000000000   0.000000000000000
disp C   0.000000000000000   0.000000000000000   0.000000000000000
disp C   0.000000000000000   0.000000000000000   0.000000000000000
disp C   0.000000000000000   0.000000000000000   0.000000000000000
disp C   0.000000000000000   0.000000000000000   0.000000000000000
disp C   0.000000000000000   0.000000000000000   0.000000000000000
disp C   0.000000000000000   0.000000000000000   0.000000000000000
disp C   0.000000000000000   0.000000000000000   0.000000000000000
disp C   0.000000000000000   0.000000000000000   0.000000000000000
disp C   0.000000000000000   0.000000000000000   0.000000000000000
disp C   0.000000000000000   0.000000000000000   0.000000000000000
disp C   0.000000000000000   0.000000000000000   0.000000000000000
disp C   0.000000000000000   0.000000000000000   0.000000000000000
disp C   0.000000000000000   0.000000000000000   0.000000000000000
disp C   0.000000000000000   0.000000000000000   0.000000000000000
disp C   0.000000000000000   0.000000000000000   0.000000000000000
disp C  -0.000005312856578  -0.000001047140253  -0.000001495266326
disp N   0.000000000000000   0.000000000000000   0.000000000000000
disp N   0.000000000000000   0.000000000000000   0.000000000000000
disp N   0.000000000000000   0.000000000000000   0.000000000000000
disp N   0.000000000000000   0.000000000000000   0.000000000000000
disp Ti   0.000000000000000   0.000000000000000   0.000000000000000
disp O   0.000003988186257   0.000004863787587  -0.000007131111351
disp O   0.000400512272672  -0.000206904936329   0.001165668824532
disp H  -0.013384982843158  -0.004717982857438  -0.013535015206088
disp H   0.007559065727459   0.007736724301380  -0.004225200445656

Real mode 11:
Frequency: 0.017565 Eh [ 3855 cm^-1 ]
Degeneracy: 1 of 1
IR intensity: 0.4668 e^2/amu [ 455.0 km/mol ]
Displacements:
disp C   0.000000000000000   0.000000000000000   0.000000000000000
disp C   0.000000000000000   0.000000000000000   0.000000000000000
disp C   0.000000000000000   0.000000000000000   0.000000000000000
disp C   0.000000000000000   0.000000000000000   0.000000000000000
disp C   0.000000000000000   0.000000000000000   0.000000000000000
disp C   0.000000000000000   0.000000000000000   0.000000000000000
disp C   0.000000000000000   0.000000000000000   0.000000000000000
disp C   0.000000000000000   0.000000000000000   0.000000000000000
disp C   0.000000000000000   0.000000000000000   0.000000000000000
disp C   0.000000000000000   0.000000000000000   0.000000000000000
disp C   0.000000000000000   0.000000000000000   0.000000000000000
disp C   0.000000000000000   0.000000000000000   0.000000000000000
disp C   0.000000000000000   0.000000000000000   0.000000000000000
disp C   0.000000000000000   0.000000000000000   0.000000000000000
disp C   0.000000000000000   0.000000000000000   0.000000000000000
disp C   0.000000000000000   0.000000000000000   0.000000000000000
disp C   0.000000000000000   0.000000000000000   0.000000000000000
disp C   0.000000000000000   0.000000000000000   0.000000000000000
disp C   0.000000000000000   0.000000000000000   0.000000000000000
disp C   0.000000000000000   0.000000000000000   0.000000000000000
disp C   0.000000000000000   0.000000000000000   0.000000000000000
disp C   0.000000000000000   0.000000000000000   0.000000000000000
disp C   0.000000000000000   0.000000000000000   0.000000000000000
disp C   0.000000000000000   0.000000000000000   0.000000000000000
disp C   0.000000000000000   0.000000000000000   0.000000000000000
disp C   0.000000000000000   0.000000000000000   0.000000000000000
disp C   0.000000000000000   0.000000000000000   0.000000000000000
disp C   0.000000000000000   0.000000000000000   0.000000000000000
disp C   0.000000000000000   0.000000000000000   0.000000000000000
disp C   0.000000000000000   0.000000000000000   0.000000000000000
disp C   0.000000000000000   0.000000000000000   0.000000000000000
disp C   0.000000000000000   0.000000000000000   0.000000000000000
disp C   0.000000000000000   0.000000000000000   0.000000000000000
disp C   0.000000000000000   0.000000000000000   0.000000000000000
disp C   0.000000000000000   0.000000000000000   0.000000000000000
disp C   0.000000000000000   0.000000000000000   0.000000000000000
disp C   0.000000000000000   0.000000000000000   0.000000000000000
disp C   0.000000000000000   0.000000000000000   0.000000000000000
disp C   0.000000000000000   0.000000000000000   0.000000000000000
disp C   0.000000000000000   0.000000000000000   0.000000000000000
disp C   0.000000000000000   0.000000000000000   0.000000000000000
disp C   0.000000000000000   0.000000000000000   0.000000000000000
disp C   0.000000000000000   0.000000000000000   0.000000000000000
disp C   0.000000000000000   0.000000000000000   0.000000000000000
disp C   0.000004388791042   0.000006006255498  -0.000017716975317
disp N   0.000000000000000   0.000000000000000   0.000000000000000
disp N   0.000000000000000   0.000000000000000   0.000000000000000
disp N   0.000000000000000   0.000000000000000   0.000000000000000
disp N   0.000000000000000   0.000000000000000   0.000000000000000
disp Ti   0.000000000000000   0.000000000000000   0.000000000000000
disp O   0.000003346478154   0.000003470638637  -0.000002899053310
disp O   0.001204895991518   0.000966693815477   0.000011906713520
disp H  -0.007307010462675  -0.002220914588252  -0.008319570614866
disp H  -0.012059927309214  -0.012947198993974   0.008109333468431

Vibrational free energy components at T = 298 K:
	ZPE:          0.029117
	Evib:         0.032841
	TSvib:        0.007454
	Avib:         0.025387


Dumping 'jdft.n_up' ... done
Dumping 'jdft.n_dn' ... done
Dumping 'jdft.tau_up' ... done
Dumping 'jdft.tau_dn' ... done
Dumping 'jdft.eigenvals' ... done
Dumping 'jdft.eigStats' ... 
	eMin: -2.288673 at state 9 ( [ +0.000000 +0.000000 +0.000000 ] spin -1 )
	HOMO: -0.167511 at state 8 ( [ -0.333333 -0.333333 +0.000000 ] spin 1 )
	mu  : -0.160200
	LUMO: -0.159683 at state 13 ( [ +0.333333 +0.333333 +0.000000 ] spin -1 )
	eMax: +0.015652 at state 8 ( [ -0.333333 -0.333333 +0.000000 ] spin 1 )
	HOMO-LUMO gap: +0.007828
	Optical gap  : +0.008009 at state 13 ( [ +0.333333 +0.333333 +0.000000 ] spin -1 )
Dumping 'jdft.kPts' ... done
Dumping 'jdft.dosUp' ... done.
Dumping 'jdft.dosDn' ... done.
End date and time: Wed Nov  9 21:50:21 2022  (Duration: 0-8:41:32.01)
Done!

PROFILER:             augmentDensityGrid     0.655231 +/-     0.821632 s, 2175 calls,   1425.126796 s total
PROFILER:         augmentDensityGridGrad     0.461094 +/-     0.572910 s, 1210 calls,    557.923823 s total
PROFILER:        augmentDensitySpherical     0.000369 +/-     0.000521 s, 2175 calls,      0.803047 s total
PROFILER:    augmentDensitySphericalGrad     0.000369 +/-     0.000613 s, 1625 calls,      0.598929 s total
PROFILER:                 augmentOverlap     1.344652 +/-     2.035024 s, 4470 calls,   6010.592257 s total
PROFILER:        ColumnBundle::randomize     0.004714 +/-     0.000000 s,    1 calls,      0.004714 s total
PROFILER:                     diagouterI    16.025132 +/-     3.149170 s,  438 calls,   7019.007598 s total
PROFILER:              EdensityAndVscloc     6.232292 +/-     4.300092 s,  436 calls,   2717.279298 s total
PROFILER:                     EnlAndGrad     0.001100 +/-     0.001747 s, 2330 calls,      2.561903 s total
PROFILER:            ExCorrCommunication     0.051603 +/-     0.050141 s, 2794 calls,    144.178174 s total
PROFILER:               ExCorrFunctional     0.025222 +/-     0.005279 s,  485 calls,     12.232905 s total
PROFILER:                    ExCorrTotal     0.571855 +/-     0.110869 s,  485 calls,    277.349492 s total
PROFILER:                   Idag_DiagV_I    28.223425 +/-    11.183078 s,  309 calls,   8721.038377 s total
PROFILER:                    initWeights     1.983020 +/-     0.000000 s,    1 calls,      1.983020 s total
PROFILER:                    inv(matrix)     0.001938 +/-     0.001008 s,  365 calls,      0.707214 s total
PROFILER:            matrix::diagonalize     0.008117 +/-     0.005381 s,  724 calls,      5.876854 s total
PROFILER:                    matrix::set     0.000002 +/-     0.000004 s, 43324 calls,      0.085387 s total
PROFILER:            orthoMatrix(matrix)     0.001365 +/-     0.000867 s,  433 calls,      0.591247 s total
PROFILER:     RadialFunctionR::transform     0.003161 +/-     0.014972 s,  151 calls,      0.477346 s total
PROFILER:                    reduceKmesh     0.000000 +/-     0.000000 s,    1 calls,      0.000000 s total
PROFILER:   VanDerWaalsD3::energyAndGrad     0.033656 +/-     0.003717 s,   33 calls,      1.110641 s total
PROFILER:               WavefunctionDrag    26.899817 +/-     0.221898 s,   16 calls,    430.397076 s total
PROFILER:                            Y*M     0.628737 +/-     0.819398 s, 7864 calls,   4944.388066 s total
PROFILER:                          Y1^Y2     0.627855 +/-     0.827799 s, 5807 calls,   3645.953774 s total

MEMUSAGE:                   ColumnBundle     1.340214 GB
MEMUSAGE:        complexScalarFieldTilde     0.049438 GB
MEMUSAGE:                    IndexArrays     0.023178 GB
MEMUSAGE:                         matrix     0.020735 GB
MEMUSAGE:                           misc     0.051230 GB
MEMUSAGE:                    ScalarField     0.395508 GB
MEMUSAGE:               ScalarFieldTilde     0.262436 GB
MEMUSAGE:                          Total     1.657328 GB
