
*************** JDFTx 1.7.0 (git hash 5f12716a) ***************

Start date and time: Wed Nov  9 13:08:49 2022
Executable /home/nisi6161/jdftx_alpine/build/jdftx with command-line: -i in
Running on hosts (process indices):  c3cpu-c11-u3-3.rc.int.colorado.edu (0-17)
Divided in process groups (process indices):  0 (0)  1 (1)  2 (2)  3 (3)  4 (4)  5 (5)  6 (6)  7 (7)  8 (8)  9 (9)  10 (10)  11 (11)  12 (12)  13 (13)  14 (14)  15 (15)  16 (16)  17 (17)
Resource initialization completed at t[s]:      0.17
Run totals: 18 processes, 48 threads, 0 GPUs


Input parsed successfully to the following command list (including defaults):

basis kpoint-dependent
converge-empty-states yes
coords-type Cartesian
core-overlap-check none
coulomb-interaction Periodic
davidson-band-ratio 1.1
density-of-states Etol 1.000000e-06 Esigma 1.000000e-03 \
		Complete \
	Total \
	OrthoOrbital C 1   s \
	OrthoOrbital C 1   p \
	OrthoOrbital C 1   px \
	OrthoOrbital C 1   py \
	OrthoOrbital C 1   pz \
	OrthoOrbital C 2   s \
	OrthoOrbital C 2   p \
	OrthoOrbital C 2   px \
	OrthoOrbital C 2   py \
	OrthoOrbital C 2   pz \
	OrthoOrbital C 3   s \
	OrthoOrbital C 3   p \
	OrthoOrbital C 3   px \
	OrthoOrbital C 3   py \
	OrthoOrbital C 3   pz \
	OrthoOrbital C 4   s \
	OrthoOrbital C 4   p \
	OrthoOrbital C 4   px \
	OrthoOrbital C 4   py \
	OrthoOrbital C 4   pz \
	OrthoOrbital C 5   s \
	OrthoOrbital C 5   p \
	OrthoOrbital C 5   px \
	OrthoOrbital C 5   py \
	OrthoOrbital C 5   pz \
	OrthoOrbital C 6   s \
	OrthoOrbital C 6   p \
	OrthoOrbital C 6   px \
	OrthoOrbital C 6   py \
	OrthoOrbital C 6   pz \
	OrthoOrbital C 7   s \
	OrthoOrbital C 7   p \
	OrthoOrbital C 7   px \
	OrthoOrbital C 7   py \
	OrthoOrbital C 7   pz \
	OrthoOrbital C 8   s \
	OrthoOrbital C 8   p \
	OrthoOrbital C 8   px \
	OrthoOrbital C 8   py \
	OrthoOrbital C 8   pz \
	OrthoOrbital C 9   s \
	OrthoOrbital C 9   p \
	OrthoOrbital C 9   px \
	OrthoOrbital C 9   py \
	OrthoOrbital C 9   pz \
	OrthoOrbital C 10   s \
	OrthoOrbital C 10   p \
	OrthoOrbital C 10   px \
	OrthoOrbital C 10   py \
	OrthoOrbital C 10   pz \
	OrthoOrbital C 11   s \
	OrthoOrbital C 11   p \
	OrthoOrbital C 11   px \
	OrthoOrbital C 11   py \
	OrthoOrbital C 11   pz \
	OrthoOrbital C 12   s \
	OrthoOrbital C 12   p \
	OrthoOrbital C 12   px \
	OrthoOrbital C 12   py \
	OrthoOrbital C 12   pz \
	OrthoOrbital C 13   s \
	OrthoOrbital C 13   p \
	OrthoOrbital C 13   px \
	OrthoOrbital C 13   py \
	OrthoOrbital C 13   pz \
	OrthoOrbital C 14   s \
	OrthoOrbital C 14   p \
	OrthoOrbital C 14   px \
	OrthoOrbital C 14   py \
	OrthoOrbital C 14   pz \
	OrthoOrbital C 15   s \
	OrthoOrbital C 15   p \
	OrthoOrbital C 15   px \
	OrthoOrbital C 15   py \
	OrthoOrbital C 15   pz \
	OrthoOrbital C 16   s \
	OrthoOrbital C 16   p \
	OrthoOrbital C 16   px \
	OrthoOrbital C 16   py \
	OrthoOrbital C 16   pz \
	OrthoOrbital C 17   s \
	OrthoOrbital C 17   p \
	OrthoOrbital C 17   px \
	OrthoOrbital C 17   py \
	OrthoOrbital C 17   pz \
	OrthoOrbital C 18   s \
	OrthoOrbital C 18   p \
	OrthoOrbital C 18   px \
	OrthoOrbital C 18   py \
	OrthoOrbital C 18   pz \
	OrthoOrbital C 19   s \
	OrthoOrbital C 19   p \
	OrthoOrbital C 19   px \
	OrthoOrbital C 19   py \
	OrthoOrbital C 19   pz \
	OrthoOrbital C 20   s \
	OrthoOrbital C 20   p \
	OrthoOrbital C 20   px \
	OrthoOrbital C 20   py \
	OrthoOrbital C 20   pz \
	OrthoOrbital C 21   s \
	OrthoOrbital C 21   p \
	OrthoOrbital C 21   px \
	OrthoOrbital C 21   py \
	OrthoOrbital C 21   pz \
	OrthoOrbital C 22   s \
	OrthoOrbital C 22   p \
	OrthoOrbital C 22   px \
	OrthoOrbital C 22   py \
	OrthoOrbital C 22   pz \
	OrthoOrbital C 23   s \
	OrthoOrbital C 23   p \
	OrthoOrbital C 23   px \
	OrthoOrbital C 23   py \
	OrthoOrbital C 23   pz \
	OrthoOrbital C 24   s \
	OrthoOrbital C 24   p \
	OrthoOrbital C 24   px \
	OrthoOrbital C 24   py \
	OrthoOrbital C 24   pz \
	OrthoOrbital C 25   s \
	OrthoOrbital C 25   p \
	OrthoOrbital C 25   px \
	OrthoOrbital C 25   py \
	OrthoOrbital C 25   pz \
	OrthoOrbital C 26   s \
	OrthoOrbital C 26   p \
	OrthoOrbital C 26   px \
	OrthoOrbital C 26   py \
	OrthoOrbital C 26   pz \
	OrthoOrbital C 27   s \
	OrthoOrbital C 27   p \
	OrthoOrbital C 27   px \
	OrthoOrbital C 27   py \
	OrthoOrbital C 27   pz \
	OrthoOrbital C 28   s \
	OrthoOrbital C 28   p \
	OrthoOrbital C 28   px \
	OrthoOrbital C 28   py \
	OrthoOrbital C 28   pz \
	OrthoOrbital C 29   s \
	OrthoOrbital C 29   p \
	OrthoOrbital C 29   px \
	OrthoOrbital C 29   py \
	OrthoOrbital C 29   pz \
	OrthoOrbital C 30   s \
	OrthoOrbital C 30   p \
	OrthoOrbital C 30   px \
	OrthoOrbital C 30   py \
	OrthoOrbital C 30   pz \
	OrthoOrbital C 31   s \
	OrthoOrbital C 31   p \
	OrthoOrbital C 31   px \
	OrthoOrbital C 31   py \
	OrthoOrbital C 31   pz \
	OrthoOrbital C 32   s \
	OrthoOrbital C 32   p \
	OrthoOrbital C 32   px \
	OrthoOrbital C 32   py \
	OrthoOrbital C 32   pz \
	OrthoOrbital C 33   s \
	OrthoOrbital C 33   p \
	OrthoOrbital C 33   px \
	OrthoOrbital C 33   py \
	OrthoOrbital C 33   pz \
	OrthoOrbital C 34   s \
	OrthoOrbital C 34   p \
	OrthoOrbital C 34   px \
	OrthoOrbital C 34   py \
	OrthoOrbital C 34   pz \
	OrthoOrbital C 35   s \
	OrthoOrbital C 35   p \
	OrthoOrbital C 35   px \
	OrthoOrbital C 35   py \
	OrthoOrbital C 35   pz \
	OrthoOrbital C 36   s \
	OrthoOrbital C 36   p \
	OrthoOrbital C 36   px \
	OrthoOrbital C 36   py \
	OrthoOrbital C 36   pz \
	OrthoOrbital C 37   s \
	OrthoOrbital C 37   p \
	OrthoOrbital C 37   px \
	OrthoOrbital C 37   py \
	OrthoOrbital C 37   pz \
	OrthoOrbital C 38   s \
	OrthoOrbital C 38   p \
	OrthoOrbital C 38   px \
	OrthoOrbital C 38   py \
	OrthoOrbital C 38   pz \
	OrthoOrbital C 39   s \
	OrthoOrbital C 39   p \
	OrthoOrbital C 39   px \
	OrthoOrbital C 39   py \
	OrthoOrbital C 39   pz \
	OrthoOrbital C 40   s \
	OrthoOrbital C 40   p \
	OrthoOrbital C 40   px \
	OrthoOrbital C 40   py \
	OrthoOrbital C 40   pz \
	OrthoOrbital C 41   s \
	OrthoOrbital C 41   p \
	OrthoOrbital C 41   px \
	OrthoOrbital C 41   py \
	OrthoOrbital C 41   pz \
	OrthoOrbital C 42   s \
	OrthoOrbital C 42   p \
	OrthoOrbital C 42   px \
	OrthoOrbital C 42   py \
	OrthoOrbital C 42   pz \
	OrthoOrbital C 43   s \
	OrthoOrbital C 43   p \
	OrthoOrbital C 43   px \
	OrthoOrbital C 43   py \
	OrthoOrbital C 43   pz \
	OrthoOrbital C 44   s \
	OrthoOrbital C 44   p \
	OrthoOrbital C 44   px \
	OrthoOrbital C 44   py \
	OrthoOrbital C 44   pz \
	OrthoOrbital C 45   s \
	OrthoOrbital C 45   p \
	OrthoOrbital C 45   px \
	OrthoOrbital C 45   py \
	OrthoOrbital C 45   pz \
	OrthoOrbital N 1   s \
	OrthoOrbital N 1   p \
	OrthoOrbital N 1   px \
	OrthoOrbital N 1   py \
	OrthoOrbital N 1   pz \
	OrthoOrbital N 2   s \
	OrthoOrbital N 2   p \
	OrthoOrbital N 2   px \
	OrthoOrbital N 2   py \
	OrthoOrbital N 2   pz \
	OrthoOrbital N 3   s \
	OrthoOrbital N 3   p \
	OrthoOrbital N 3   px \
	OrthoOrbital N 3   py \
	OrthoOrbital N 3   pz \
	OrthoOrbital N 4   s \
	OrthoOrbital N 4   p \
	OrthoOrbital N 4   px \
	OrthoOrbital N 4   py \
	OrthoOrbital N 4   pz \
	OrthoOrbital Ti 1   s \
	OrthoOrbital Ti 1   p \
	OrthoOrbital Ti 1   px \
	OrthoOrbital Ti 1   py \
	OrthoOrbital Ti 1   pz \
	OrthoOrbital Ti 1   d \
	OrthoOrbital Ti 1   dxy \
	OrthoOrbital Ti 1   dyz \
	OrthoOrbital Ti 1   dz2 \
	OrthoOrbital Ti 1   dxz \
	OrthoOrbital Ti 1   dx2-y2 \
	OrthoOrbital O 1   s \
	OrthoOrbital O 1   p \
	OrthoOrbital O 1   px \
	OrthoOrbital O 1   py \
	OrthoOrbital O 1   pz \
	OrthoOrbital O 2   s \
	OrthoOrbital O 2   p \
	OrthoOrbital O 2   px \
	OrthoOrbital O 2   py \
	OrthoOrbital O 2   pz \
	OrthoOrbital O 3   s \
	OrthoOrbital O 3   p \
	OrthoOrbital O 3   px \
	OrthoOrbital O 3   py \
	OrthoOrbital O 3   pz \
	OrthoOrbital H 1   s \
	OrthoOrbital H 2   s \
	OrthoOrbital H 3   s
dump End ElecDensity KEdensity BandEigs EigStats RhoAtom DOS Kpoints
dump Ionic State IonicPositions Lattice EigStats Ecomponents
dump 
dump 
dump 
dump 
dump 
dump 
dump 
dump 
dump-name jdft.$VAR
elec-cutoff 20
elec-eigen-algo Davidson
elec-ex-corr gga-PBE
elec-initial-magnetization 0.000000 no
elec-n-bands 140
elec-smearing Fermi 0.001
electronic-minimize  \
	dirUpdateScheme      FletcherReeves \
	linminMethod         DirUpdateRecommended \
	nIterations          100 \
	history              15 \
	knormThreshold       0 \
	energyDiffThreshold  1e-07 \
	nEnergyDiff          2 \
	alphaTstart          1 \
	alphaTmin            1e-10 \
	updateTestStepSize   yes \
	alphaTreduceFactor   0.1 \
	alphaTincreaseFactor 3 \
	nAlphaAdjustMax      3 \
	wolfeEnergy          0.0001 \
	wolfeGradient        0.9 \
	fdTest               no
exchange-regularization WignerSeitzTruncated
fluid LinearPCM 298.000000 1.013250
fluid-anion F- 0.5 MeanFieldLJ \
	epsBulk 1 \
	pMol 0 \
	epsInf 1 \
	Pvap 0 \
	sigmaBulk 0 \
	Rvdw 2.24877 \
	Res 0 \
	tauNuc 343133
fluid-cation Na+ 0.5 MeanFieldLJ \
	epsBulk 1 \
	pMol 0 \
	epsInf 1 \
	Pvap 0 \
	sigmaBulk 0 \
	Rvdw 2.19208 \
	Res 0 \
	tauNuc 343133
fluid-ex-corr lda-TF lda-PZ
fluid-gummel-loop 10 1.000000e-05
fluid-minimize  \
	dirUpdateScheme      PolakRibiere \
	linminMethod         DirUpdateRecommended \
	nIterations          400 \
	history              15 \
	knormThreshold       1e-11 \
	energyDiffThreshold  0 \
	nEnergyDiff          2 \
	alphaTstart          1 \
	alphaTmin            1e-10 \
	updateTestStepSize   yes \
	alphaTreduceFactor   0.1 \
	alphaTincreaseFactor 3 \
	nAlphaAdjustMax      6 \
	wolfeEnergy          0.0001 \
	wolfeGradient        0.9 \
	fdTest               no
fluid-solvent H2O 55.338 ScalarEOS \
	epsBulk 78.4 \
	pMol 0.92466 \
	epsInf 1.77 \
	Pvap 1.06736e-10 \
	sigmaBulk 4.62e-05 \
	Rvdw 2.61727 \
	Res 1.42 \
	tauNuc 343133 \
	poleEl 15 7 1
forces-output-coords Positions
ion C -11.648193000000001  19.936248000000003   0.104594000000000 0
ion C  -2.295987000000000   3.942602000000000   0.108314000000000 0
ion C  -4.642938000000001   7.947111000000001   0.061164000000000 0
ion C  -6.958210999999999  11.963057000000001   0.046111000000000 0
ion C  -9.286921000000001  15.974265000000006   0.091747000000000 0
ion C   4.771956000000001   0.103957000000000   0.131153000000000 0
ion C   2.385727000000000   4.108037000000001   0.205467000000000 0
ion C  -0.019676000000000   7.947848000000000   0.186911000000000 0
ion C  -2.342678000000001  11.957244000000001   0.096505000000000 0
ion C  -4.639748000000000  15.982302000000002   0.075569000000000 0
ion C  -2.271955000000000  19.944963999999999   0.075266000000000 0
ion C   7.176603000000002   4.112015000000001   0.203737000000000 0
ion C   0.050621000000000  15.895685000000002   0.096202000000000 0
ion C   2.434837999999999  19.848364000000007   0.083095000000000 0
ion C  11.850369000000001   3.946141000000000   0.076953000000000 0
ion C   9.564274999999999   7.930667000000001   0.187516000000000 0
ion C   4.757859000000002  15.753339000000002   0.201488000000000 0
ion C   7.087006000000001  19.851976000000001   0.104983000000000 0
ion C  16.495297000000004   3.933128000000000   0.058958000000000 0
ion C  14.186369000000001   7.955743000000001   0.042954000000000 0
ion C  11.860551000000001  11.955301000000000   0.113937000000000 0
ion C   9.456132000000002  15.886647000000002   0.136128000000000 0
ion C   0.075245000000000   2.680316000000000   0.126871000000000 0
ion C  -2.326846000000001   6.618347000000002   0.116403000000000 0
ion C  -4.651013000000001  10.618166000000002   0.057185000000000 0
ion C  -6.961545000000001  14.640161000000003   0.070292000000000 0
ion C  -9.286760000000001  18.662404000000002   0.109179000000000 0
ion C   4.775575000000000   2.821645000000001   0.200666000000000 0
ion C  -0.026060000000002  10.644561000000001   0.167748000000000 0
ion C  -2.316700000000000  14.628604000000001   0.086123000000000 0
ion C  -4.634945000000003  18.668210000000002   0.093174000000000 0
ion C   9.480888999999999   2.683408000000000   0.098884000000000 0
ion C   2.356588000000000  14.474261000000002   0.189117000000000 0
ion C   0.069724999999998  18.574861000000002   0.071892000000000 0
ion C  14.174085000000000   2.591546000000001   0.062722000000000 0
ion C  11.878514000000001   6.617203000000002   0.084826000000000 0
ion C   9.555056000000000  10.625700999999999   0.203564000000000 0
ion C   7.145535000000001  14.456651000000001   0.224760000000000 0
ion C   4.761911999999999  18.470808000000005   0.125746000000000 0
ion C  18.821306000000003   2.598546000000000   0.083095000000000 0
ion C  16.492619000000005   6.610471000000001   0.038671000000000 0
ion C  14.177451000000000  10.626477000000000   0.054114000000000 0
ion C  11.829869000000002  14.630029000000000   0.116013000000000 0
ion C   9.445784000000002  18.573321000000004   0.106281000000000 0
ion C   4.249873000000000  10.085070000000004   5.505447000000001 1
ion N   2.246477000000001  11.891618000000001   0.284929000000000 0
ion N   7.263616000000002  11.851838000000003   0.347608000000000 0
ion N   2.271081000000000   6.711317000000002   0.299420000000000 0
ion N   7.293464000000000   6.694664000000002   0.321005000000000 0
ion Ti   4.724194000000001   9.299410000000002   1.741932000000000 0
ion O   3.482072000000000  10.900251000000001   7.661299000000001 1
ion O   6.176689000000000   8.648611000000002   5.256075000000001 1
ion O  -0.188823000000000  13.723332000000001   6.731072000000002 1
ion H   1.881567000000000  12.114109000000003   7.346825000000002 1
ion H   0.059509000000000  15.445900000000002   7.400420000000001 1
ion H  -1.777423000000000  13.122728000000002   7.499909000000001 1
ion-species /projects/musgravc/apps/jdftx-1.6.0/build/pseudopotentials/GBRV_v1.5/$ID_pbe_v1.uspp
ion-species /projects/musgravc/apps/jdftx-1.6.0/build/pseudopotentials/GBRV_v1.5/$ID_pbe_v1.2.uspp
ion-species /projects/musgravc/apps/jdftx-1.6.0/build/pseudopotentials/GBRV_v1.5/$ID_pbe_v1.4.uspp
ion-species /projects/musgravc/apps/jdftx-1.6.0/build/pseudopotentials/GBRV_v1.5/$ID_pbe_v1.5.uspp
ion-width Ecut
ionic-minimize  \
	dirUpdateScheme      L-BFGS \
	linminMethod         DirUpdateRecommended \
	nIterations          100 \
	history              15 \
	knormThreshold       0.0001 \
	energyDiffThreshold  0.0001 \
	nEnergyDiff          2 \
	alphaTstart          1 \
	alphaTmin            1e-10 \
	updateTestStepSize   yes \
	alphaTreduceFactor   0.1 \
	alphaTincreaseFactor 3 \
	nAlphaAdjustMax      3 \
	wolfeEnergy          0.0001 \
	wolfeGradient        0.9 \
	fdTest               no
kpoint   0.000000000000   0.000000000000   0.000000000000  1.00000000000000
kpoint-folding 3 3 1 
latt-move-scale 0 0 0
latt-scale 1 1 1 
lattice  \
	  23.436261999999999  -11.733459000000000    0.000000000000000  \
	   0.017994000000000   19.941849000000001    0.000000000000000  \
	   0.000000000000000    0.000000000000000   43.256312999999999 
lattice-minimize  \
	dirUpdateScheme      L-BFGS \
	linminMethod         DirUpdateRecommended \
	nIterations          0 \
	history              15 \
	knormThreshold       0 \
	energyDiffThreshold  1e-06 \
	nEnergyDiff          2 \
	alphaTstart          1 \
	alphaTmin            1e-10 \
	updateTestStepSize   yes \
	alphaTreduceFactor   0.1 \
	alphaTincreaseFactor 3 \
	nAlphaAdjustMax      3 \
	wolfeEnergy          0.0001 \
	wolfeGradient        0.9 \
	fdTest               no
lcao-params 30 1e-06 0.001
pcm-variant CANDLE
spintype z-spin
subspace-rotation-factor 1 yes
symmetries none
symmetry-threshold 0.0001
target-mu -0.1602 no

van-der-waals D3
vibrations \
	dr 0.01\
	centralDiff no\
	useConstraints yes\
	translationSym yes\
	rotationSym no\
	omegaMin 0.0002\
	T 298\
	omegaResolution 0.0001


Applied RMS atom displacement 0 bohrs to make symmetries exact.
Applied RMS atom displacement 0 bohrs to make symmetries exact.

---------- Initializing the Grid ----------
R = 
[      23.4363     -11.7335            0  ]
[     0.017994      19.9418            0  ]
[            0            0      43.2563  ]
unit cell volume = 20225.5
G =
[   0.267976   0.157673         -0  ]
[ -0.000241801   0.314933          0  ]
[          0         -0   0.145255  ]
Minimum fftbox size, Smin = [  96  96  176  ]
Chosen fftbox size, S = [  96  96  180  ]

---------- Exchange Correlation functional ----------
Initalized PBE GGA exchange.
Initalized PBE GGA correlation.

---------- Setting up pseudopotentials ----------
Width of ionic core gaussian charges (only for fluid interactions / plotting) set to 0.397384

Reading pseudopotential file '/projects/musgravc/apps/jdftx-1.6.0/build/pseudopotentials/GBRV_v1.5/c_pbe_v1.2.uspp':
  Title: C.  Created by USPP 7.3.6 on 3-2-2014
  Reference state energy: -5.406344.  4 valence electrons in orbitals:
    |200>  occupation: 2  eigenvalue: -0.504890
    |210>  occupation: 2  eigenvalue: -0.194356
  lMax: 1  lLocal: 2  QijEcut: 5
  4 projectors sampled on a log grid with 503 points:
    l: 0  eig: -0.504890  rCut: 1.3
    l: 0  eig: 0.000000  rCut: 1.3
    l: 1  eig: -0.194357  rCut: 1.3
    l: 1  eig: 0.000000  rCut: 1.3
  Partial core density with radius 1.1
  Transforming core density to a uniform radial grid of dG=0.02 with 1464 points.
  Transforming local potential to a uniform radial grid of dG=0.02 with 1464 points.
  Transforming nonlocal projectors to a uniform radial grid of dG=0.02 with 432 points.
  Transforming density augmentations to a uniform radial grid of dG=0.02 with 1464 points.
  Transforming atomic orbitals to a uniform radial grid of dG=0.02 with 432 points.
  Core radius for overlap checks: 1.30 bohrs.

Reading pseudopotential file '/projects/musgravc/apps/jdftx-1.6.0/build/pseudopotentials/GBRV_v1.5/n_pbe_v1.2.uspp':
  Title: N.  Created by USPP 7.3.6 on 3-2-2014
  Reference state energy: -9.763716.  5 valence electrons in orbitals:
    |200>  occupation: 2  eigenvalue: -0.681964
    |210>  occupation: 3  eigenvalue: -0.260726
  lMax: 1  lLocal: 2  QijEcut: 6
  4 projectors sampled on a log grid with 491 points:
    l: 0  eig: -0.681964  rCut: 1.15
    l: 0  eig: 0.000000  rCut: 1.15
    l: 1  eig: -0.260729  rCut: 1.2
    l: 1  eig: 0.500000  rCut: 1.2
  Partial core density with radius 0.8
  Transforming core density to a uniform radial grid of dG=0.02 with 1464 points.
  Transforming local potential to a uniform radial grid of dG=0.02 with 1464 points.
  Transforming nonlocal projectors to a uniform radial grid of dG=0.02 with 432 points.
  Transforming density augmentations to a uniform radial grid of dG=0.02 with 1464 points.
  Transforming atomic orbitals to a uniform radial grid of dG=0.02 with 432 points.
  Core radius for overlap checks: 1.20 bohrs.

Reading pseudopotential file '/projects/musgravc/apps/jdftx-1.6.0/build/pseudopotentials/GBRV_v1.5/ti_pbe_v1.4.uspp':
  Title: Ti.  Created by USPP 7.3.6 on 31-3-15
  Reference state energy: -59.020943.  12 valence electrons in orbitals:
    |300>  occupation: 2  eigenvalue: -2.777623
    |310>  occupation: 6  eigenvalue: -1.894596
    |400>  occupation: 2  eigenvalue: -0.438610
    |320>  occupation: 1  eigenvalue: -0.583119
  lMax: 2  lLocal: 3  QijEcut: 6
  6 projectors sampled on a log grid with 597 points:
    l: 0  eig: -2.777624  rCut: 1.8
    l: 0  eig: -0.438611  rCut: 1.8
    l: 1  eig: -1.894596  rCut: 1.8
    l: 1  eig: 0.500000  rCut: 1.8
    l: 2  eig: -0.583118  rCut: 1.8
    l: 2  eig: 0.150000  rCut: 1.8
  Partial core density with radius 0.8
  Transforming core density to a uniform radial grid of dG=0.02 with 1464 points.
  Transforming local potential to a uniform radial grid of dG=0.02 with 1464 points.
  Transforming nonlocal projectors to a uniform radial grid of dG=0.02 with 432 points.
  Transforming density augmentations to a uniform radial grid of dG=0.02 with 1464 points.
  Transforming atomic orbitals to a uniform radial grid of dG=0.02 with 432 points.
  Core radius for overlap checks: 1.80 bohrs.

Reading pseudopotential file '/projects/musgravc/apps/jdftx-1.6.0/build/pseudopotentials/GBRV_v1.5/o_pbe_v1.2.uspp':
  Title: O.  Created by USPP 7.3.6 on 3-2-2014
  Reference state energy: -15.894388.  6 valence electrons in orbitals:
    |200>  occupation: 2  eigenvalue: -0.878823
    |210>  occupation: 4  eigenvalue: -0.332131
  lMax: 2  lLocal: 2  QijEcut: 6
  5 projectors sampled on a log grid with 511 points:
    l: 0  eig: -0.878823  rCut: 1.25
    l: 0  eig: 0.000000  rCut: 1.25
    l: 1  eig: -0.332132  rCut: 1.25
    l: 1  eig: 0.000000  rCut: 1.25
    l: 2  eig: 1.000000  rCut: 1.25
  Partial core density with radius 0.7
  Transforming core density to a uniform radial grid of dG=0.02 with 1464 points.
  Transforming local potential to a uniform radial grid of dG=0.02 with 1464 points.
  Transforming nonlocal projectors to a uniform radial grid of dG=0.02 with 432 points.
  Transforming density augmentations to a uniform radial grid of dG=0.02 with 1464 points.
  Transforming atomic orbitals to a uniform radial grid of dG=0.02 with 432 points.
  Core radius for overlap checks: 1.25 bohrs.

Reading pseudopotential file '/projects/musgravc/apps/jdftx-1.6.0/build/pseudopotentials/GBRV_v1.5/h_pbe_v1.4.uspp':
  Title: H.  Created by USPP 7.3.6 on 2-4-15
  Reference state energy: -0.458849.  1 valence electrons in orbitals:
    |100>  occupation: 1  eigenvalue: -0.238595
  lMax: 0  lLocal: 1  QijEcut: 6
  2 projectors sampled on a log grid with 395 points:
    l: 0  eig: -0.238595  rCut: 1.2
    l: 0  eig: 1.000000  rCut: 1.2
  Transforming local potential to a uniform radial grid of dG=0.02 with 1464 points.
  Transforming nonlocal projectors to a uniform radial grid of dG=0.02 with 432 points.
  Transforming density augmentations to a uniform radial grid of dG=0.02 with 1464 points.
  Transforming atomic orbitals to a uniform radial grid of dG=0.02 with 432 points.
  Core radius for overlap checks: 1.20 bohrs.

Initialized 5 species with 56 total atoms.

Folded 1 k-points by 3x3x1 to 9 k-points.

---------- Setting up k-points, bands, fillings ----------
No reducable k-points. 
Computing the number of bands and number of electrons
Calculating initial fillings.
nElectrons: 233.000000   nBands: 140   nStates: 18

----- Setting up reduced wavefunction bases (one per k-point) -----
average nbasis = 86412.556 , ideal nbasis = 86404.907

----- Initializing Supercell corresponding to k-point mesh -----
Lattice vector linear combinations in supercell:
[   3   0   0  ]
[   0   3   0  ]
[   0   0   1  ]
Supercell lattice vectors:
[  70.3088  -35.2004  0  ]
[  0.053982  59.8255  0  ]
[  0  0  43.2563  ]

Initializing DFT-D3 calculator:
	Parameters set for gga-PBE functional
	s6:  1.000  s_r6:  1.217
	s8:  0.722  s_r8:  1.000
	Per-atom parameters loaded for:
	 C:  sqrtQ[a0]:  3.105  Rcov[a0]:  1.417  CN: [ 0.00 0.99 2.00 3.00 3.98 ]
	 N:  sqrtQ[a0]:  2.712  Rcov[a0]:  1.342  CN: [ 0.00 0.99 2.01 2.99 ]
	Ti:  sqrtQ[a0]:  6.288  Rcov[a0]:  2.305  CN: [ 0.00 1.83 3.87 ]
	 O:  sqrtQ[a0]:  2.594  Rcov[a0]:  1.191  CN: [ 0.00 0.99 1.99 ]
	 H:  sqrtQ[a0]:  2.007  Rcov[a0]:  0.605  CN: [ 0.91 0.00 ]

Initializing DFT-D2 calculator for fluid / solvation:
	 C:  C6:   30.35 Eh-a0^6  R0: 2.744 a0
	 N:  C6:   21.33 Eh-a0^6  R0: 2.640 a0
	Ti:  C6:  187.33 Eh-a0^6  R0: 2.952 a0
	 O:  C6:   12.14 Eh-a0^6  R0: 2.536 a0
	 H:  C6:    2.43 Eh-a0^6  R0: 1.892 a0

---------- Setting up ewald sum ----------
Optimum gaussian width for ewald sums = 5.557061 bohr.
Real space sum over 567 unit cells with max indices [  4  4  3  ]
Reciprocal space sum over 7803 terms with max indices [  8  8  13  ]

Computing DFT-D3 correction:
# coordination-number C 3.301 3.320 3.333 3.332 3.313 3.291 3.325 3.632 3.330 3.314 3.303 3.325 3.307 3.302 3.325 3.582 3.269 3.301 3.319 3.334 3.326 3.301 3.302 3.325 3.334 3.319 3.301 3.268 3.630 3.325 3.302 3.306 3.333 3.304 3.314 3.330 3.591 3.325 3.291 3.313 3.332 3.334 3.321 3.300 3.016
# coordination-number N 3.184 3.176 3.177 3.179
# coordination-number Ti 7.526
# coordination-number O 1.985 1.990 2.134
# coordination-number H 1.107 0.991 0.991
# diagonal-C6 C 24.28 24.08 23.94 23.96 24.16 24.37 24.02 19.92 23.98 24.14 24.25 24.03 24.21 24.26 24.03 20.49 24.56 24.28 24.09 23.93 24.02 24.27 24.27 24.02 23.93 24.09 24.27 24.57 19.94 24.02 24.26 24.22 23.94 24.24 24.14 23.98 20.38 24.02 24.36 24.16 23.96 23.94 24.07 24.28 25.64
# diagonal-C6 N 15.60 15.60 15.60 15.60
# diagonal-C6 Ti 321.59
# diagonal-C6 O 10.41 10.41 10.38
# diagonal-C6 H 3.06 3.09 3.09
EvdW_6 =   -0.044280
EvdW_8 =   -0.033614

---------- Allocating electronic variables ----------
Initializing wave functions:  linear combination of atomic orbitals
C pseudo-atom occupations:   s ( 2 )  p ( 2 )
N pseudo-atom occupations:   s ( 2 )  p ( 3 )
Ti pseudo-atom occupations:   s ( 2 0 )  p ( 6 )  d ( 4 )
O pseudo-atom occupations:   s ( 2 )  p ( 4 )
H pseudo-atom occupations:   s ( 1 )
	FillingsUpdate:  mu: -0.160200000  nElectrons: 233.000000  magneticMoment: [ Abs: 0.00445  Tot: +0.00003 ]
LCAOMinimize: Iter:   0  G: -361.7838497543843346  |grad|_K:  4.196e-03  alpha:  1.000e+00
	FillingsUpdate:  mu: -0.160200000  nElectrons: 233.000000  magneticMoment: [ Abs: 0.00438  Tot: -0.00001 ]
LCAOMinimize: Iter:   1  G: -363.6147666314581670  |grad|_K:  1.545e-03  alpha:  9.818e-02  linmin: -1.410e-01  cgtest:  1.747e+00  t[s]:    296.61
LCAOMinimize: Encountered beta<0, resetting CG.
LCAOMinimize: 	Predicted alpha/alphaT>3.000000, increasing alphaT to 2.945442e-01.
LCAOMinimize: 	Predicted alpha/alphaT>3.000000, increasing alphaT to 8.836326e-01.
	FillingsUpdate:  mu: -0.160200000  nElectrons: 233.000000  magneticMoment: [ Abs: 0.00437  Tot: -0.00000 ]
LCAOMinimize: Iter:   2  G: -363.6804127146727410  |grad|_K:  1.452e-03  alpha:  3.212e-02  linmin: -1.638e-01  cgtest:  1.005e+00  t[s]:    475.25
LCAOMinimize: Encountered beta<0, resetting CG.
LCAOMinimize: 	Predicted alpha/alphaT>3.000000, increasing alphaT to 9.635238e-02.
LCAOMinimize: 	Predicted alpha/alphaT>3.000000, increasing alphaT to 2.890571e-01.
LCAOMinimize: 	Predicted alpha/alphaT>3.000000, increasing alphaT to 8.671714e-01.
LCAOMinimize: 	Step increased G by 2.392426e+02, reducing alpha to 5.051567e+00.
LCAOMinimize: 	Step increased G by 5.845382e+01, reducing alpha to 5.051567e-01.
	FillingsUpdate:  mu: -0.160200000  nElectrons: 233.000000  magneticMoment: [ Abs: 0.00452  Tot: -0.00014 ]
LCAOMinimize: Iter:   3  G: -363.8738213145272198  |grad|_K:  5.444e-03  alpha:  5.052e-01  linmin:  1.954e-01  cgtest: -1.714e-01  t[s]:    831.11
LCAOMinimize: 	Bad step direction: g.d > 0.
LCAOMinimize: 	Undoing step.
LCAOMinimize: 	Step failed: resetting search direction.
	FillingsUpdate:  mu: -0.160200000  nElectrons: 233.000000  magneticMoment: [ Abs: 0.00452  Tot: -0.00014 ]
LCAOMinimize: Iter:   4  G: -363.8738213145272198  |grad|_K:  5.444e-03  alpha:  0.000e+00
	FillingsUpdate:  mu: -0.160200000  nElectrons: 233.000000  magneticMoment: [ Abs: 0.00446  Tot: +0.00003 ]
LCAOMinimize: Iter:   5  G: -364.3337456813665653  |grad|_K:  1.538e-03  alpha:  2.427e-01  linmin:  5.220e-02  cgtest: -2.609e+00  t[s]:   1039.54
LCAOMinimize: 	Bad step direction: g.d > 0.
LCAOMinimize: 	Undoing step.
LCAOMinimize: 	Step failed: resetting search direction.
	FillingsUpdate:  mu: -0.160200000  nElectrons: 233.000000  magneticMoment: [ Abs: 0.00446  Tot: +0.00003 ]
LCAOMinimize: Iter:   6  G: -364.3337456813665653  |grad|_K:  1.538e-03  alpha:  0.000e+00
LCAOMinimize: 	Step increased G by 1.230105e+00, reducing alpha to 3.404764e-02.
	FillingsUpdate:  mu: -0.160200000  nElectrons: 233.000000  magneticMoment: [ Abs: 0.00446  Tot: +0.00002 ]
LCAOMinimize: Iter:   7  G: -364.4033169489695183  |grad|_K:  1.389e-03  alpha:  3.405e-02  linmin: -2.093e-01  cgtest:  9.605e-01  t[s]:   1337.19
LCAOMinimize: Encountered beta<0, resetting CG.
LCAOMinimize: 	Predicted alpha/alphaT>3.000000, increasing alphaT to 1.021429e-01.
LCAOMinimize: 	Predicted alpha/alphaT>3.000000, increasing alphaT to 3.064288e-01.
	FillingsUpdate:  mu: -0.160200000  nElectrons: 233.000000  magneticMoment: [ Abs: 0.00447  Tot: +0.00002 ]
LCAOMinimize: Iter:   8  G: -364.5852455605054843  |grad|_K:  8.872e-04  alpha:  1.191e-01  linmin: -2.471e-01  cgtest:  7.948e-01  t[s]:   1518.05
LCAOMinimize: Encountered beta<0, resetting CG.
LCAOMinimize: 	Step increased G by 5.924636e-01, reducing alpha to 3.565344e-02.
	FillingsUpdate:  mu: -0.160200000  nElectrons: 233.000000  magneticMoment: [ Abs: 0.00448  Tot: +0.00002 ]
LCAOMinimize: Iter:   9  G: -364.6091099058519376  |grad|_K:  7.809e-04  alpha:  3.565e-02  linmin: -2.531e-01  cgtest:  9.581e-01  t[s]:   1726.98
LCAOMinimize: Encountered beta<0, resetting CG.
LCAOMinimize: 	Predicted alpha/alphaT>3.000000, increasing alphaT to 1.069603e-01.
LCAOMinimize: 	Predicted alpha/alphaT>3.000000, increasing alphaT to 3.208810e-01.
	FillingsUpdate:  mu: -0.160200000  nElectrons: 233.000000  magneticMoment: [ Abs: 0.00448  Tot: +0.00002 ]
LCAOMinimize: Iter:  10  G: -364.6447397566916493  |grad|_K:  5.537e-04  alpha:  7.324e-02  linmin: -2.614e-01  cgtest:  9.194e-01  t[s]:   1907.86
LCAOMinimize: Encountered beta<0, resetting CG.
LCAOMinimize: 	Predicted alpha/alphaT>3.000000, increasing alphaT to 2.197075e-01.
	FillingsUpdate:  mu: -0.160200000  nElectrons: 233.000000  magneticMoment: [ Abs: 0.00450  Tot: +0.00002 ]
LCAOMinimize: Iter:  11  G: -364.6731597922317292  |grad|_K:  1.383e-04  alpha:  2.007e-01  linmin:  1.618e-01  cgtest: -5.161e-01  t[s]:   2058.83
LCAOMinimize: 	Wrong curvature in test step, increasing alphaT to 6.021524e-01.
	FillingsUpdate:  mu: -0.160200000  nElectrons: 233.000000  magneticMoment: [ Abs: 0.00452  Tot: +0.00002 ]
LCAOMinimize: Iter:  12  G: -364.6750949685033447  |grad|_K:  1.418e-04  alpha: -5.687e-01  linmin:  1.560e-02  cgtest:  8.014e-01  t[s]:   2176.58
	FillingsUpdate:  mu: -0.160200000  nElectrons: 233.000000  magneticMoment: [ Abs: 0.00453  Tot: +0.00003 ]
LCAOMinimize: Iter:  13  G: -364.6753024375008181  |grad|_K:  4.320e-05  alpha:  1.938e-01  linmin:  1.619e-01  cgtest: -7.071e-01  t[s]:   2296.20
LCAOMinimize: 	Step increased G by 5.010718e-05, reducing alpha to 6.395373e-03.
LCAOMinimize: 	Step increased G by 7.814485e-06, reducing alpha to 6.395373e-04.
LCAOMinimize: 	Step increased G by 8.171094e-07, reducing alpha to 6.395373e-05.
LCAOMinimize: 	Step failed to reduce G after 3 attempts. Quitting step.
LCAOMinimize: 	Undoing step.
LCAOMinimize: 	Step failed: resetting search direction.
	FillingsUpdate:  mu: -0.160200000  nElectrons: 233.000000  magneticMoment: [ Abs: 0.00453  Tot: +0.00003 ]
LCAOMinimize: Iter:  14  G: -364.6753017017183538  |grad|_K:  4.319e-05  alpha:  6.395e-05
	FillingsUpdate:  mu: -0.160200000  nElectrons: 233.000000  magneticMoment: [ Abs: 0.00453  Tot: +0.00003 ]
LCAOMinimize: Iter:  15  G: -364.6753494379502740  |grad|_K:  2.089e-05  alpha:  1.105e-01  linmin: -2.374e-01  cgtest:  8.539e-01  t[s]:   2805.81
LCAOMinimize: Encountered beta<0, resetting CG.
LCAOMinimize: 	Step increased G by 2.346144e-06, reducing alpha to 5.290491e-03.
LCAOMinimize: 	Step increased G by 4.097275e-07, reducing alpha to 5.290491e-04.
LCAOMinimize: 	Step increased G by 4.301455e-08, reducing alpha to 5.290491e-05.
LCAOMinimize: 	Step failed to reduce G after 3 attempts. Quitting step.
LCAOMinimize: 	Undoing step.
LCAOMinimize: 	Step failed along negative gradient direction.
LCAOMinimize: Probably at roundoff error limit. (Stopping)
----- createFluidSolver() ----- (Fluid-side solver setup)
   Initializing fluid molecule 'H2O'
     Initializing site 'O'
       Electron density: proportional to exp(-r/0.36935)*erfc((r-0.51523)/0.36823) with norm 6.826
       Charge density: gaussian nuclear width 0.478731 with net site charge 0.826
       Polarizability: cuspless exponential with width 0.32 and norm 3.73
       Hard sphere radius: 2.57003 bohrs
       Positions in reference frame:
         [ +0.000000 +0.000000 +0.000000 ]
     Initializing site 'H'
       Electron density: proportional to exp(-r/0.34641)*erfc((r-0)/0.390882) with norm 0.587
       Charge density: gaussian nuclear width 0.377945 with net site charge -0.413
       Polarizability: cuspless exponential with width 0.39 and norm 3.3
       Positions in reference frame:
         [ +0.000000 -1.441945 +1.122523 ]
         [ +0.000000 +1.441945 +1.122523 ]
     Net charge: 0   dipole magnitude: 0.927204
     Initializing spherical shell mfKernel with radius 2.61727 Bohr
     deltaS corrections:
       site 'O': -7.54299
       site 'H': -6.83917
   Initializing fluid molecule 'Na+'
     Initializing site 'Na'
       Electron density: proportional to exp(-r/0.19682)*erfc((r-0.71491)/0.41314) with norm 8.1383
       Charge density: gaussian nuclear width 0.365347 with net site charge -1
       Hard sphere radius: 1.86327 bohrs
       Positions in reference frame:
         [ +0.000000 +0.000000 +0.000000 ]
     Net charge: -1   dipole magnitude: 0
     Initializing gaussian mfKernel with width: 1.55004 Bohr
     deltaS corrections:
       site 'Na': -22.3555
   Initializing fluid molecule 'F-'
     Initializing site 'F'
       Electron density: proportional to exp(-r/0.38886)*erfc((r-0)/0.438782) with norm 8
       Charge density: gaussian nuclear width 0.374796 with net site charge 1
       Hard sphere radius: 2.39995 bohrs
       Positions in reference frame:
         [ +0.000000 +0.000000 +0.000000 ]
     Net charge: 1   dipole magnitude: 0
     Initializing gaussian mfKernel with width: 1.59012 Bohr
     deltaS corrections:
       site 'F': -9.04335

Correction to mu due to finite nuclear width = -0.0114303
   Cavity determined by nc: 0.00142 and sigma: 0.707107
   Nonlocal vdW cavity from gaussian model electron density with norm = 8 and sigma = 0.993594 bohr
   Charge asymmetry in cavity with sensitivity pCavity = 36.5 e-bohr/Eh
   Electrostatic cavity expanded by eta = 1.46 bohrs
   Weighted density cavitation model constrained by Nbulk: 0.0049383 bohr^-3, Pvap: 3.14029 kPa, Rvdw: 2.61727 bohr and sigmaBulk: 4.62e-05 Eh/bohr^2 at T: 298 K.
   Weighted density dispersion model using vdW pair potentials with single solvent site with sqrtC6eff: 0.77 SI.
WARNING: Vibrations: switching off translationSym and rotationSym since useConstraints is on.

---- Citations for features of the code used in this run ----

   Software package:
      R. Sundararaman, K. Letchworth-Weaver, K.A. Schwarz, D. Gunceler, Y. Ozhabes and T.A. Arias, 'JDFTx: software for joint density-functional theory', SoftwareX 6, 278 (2017)

   gga-PBE exchange-correlation functional:
      J.P. Perdew, K. Burke and M. Ernzerhof, Phys. Rev. Lett. 77, 3865 (1996)

   Pseudopotentials:
      KF Garrity, JW Bennett, KM Rabe and D Vanderbilt, Comput. Mater. Sci. 81, 446 (2014)

   DFT-D3 dispersion correction:
      S. Grimme, J. Antony, S. Ehrlich and H. Krieg, J. Chem. Phys. 132, 154104 (2010)

   DFT-D2 dispersion correction:
      S. Grimme, J. Comput. Chem. 27, 1787 (2006)

   Charge-asymmetric nonlocally-determined local-electric (CANDLE) solvation model:
      R. Sundararaman and W.A. Goddard III, J. Chem. Phys. 142, 064107 (2015)

   Total energy minimization with Auxiliary Hamiltonian:
      C. Freysoldt, S. Boeck, and J. Neugebauer, Phys. Rev. B 79, 241103(R) (2009)

   Grand-canonical (fixed-potential) DFT:
      R. Sundararaman, W. A. Goddard III and T. A. Arias, J. Chem. Phys. 146, 114104 (2017)

   Linear-tetrahedron sampling for density of states:
      G. Lehmann and M. Taut, Phys. status solidi (b) 54, 469 (1972)

This list may not be complete. Please suggest additional citations or
report any other bugs at https://github.com/shankar1729/jdftx/issues

Initialization completed successfully at t[s]:   3212.00

------ Vibrations::calculate() -------
WARNING: Vibrations module is experimental. Please report bugs!
Compare results with and without symmetries and report discrepancies.
Degrees of freedom: 21 total, 21 symmetry-independent.

Computing DFT-D3 correction:
# coordination-number C 3.301 3.320 3.333 3.332 3.313 3.291 3.325 3.632 3.330 3.314 3.303 3.325 3.307 3.302 3.325 3.582 3.269 3.301 3.319 3.334 3.326 3.301 3.302 3.325 3.334 3.319 3.301 3.268 3.630 3.325 3.302 3.306 3.333 3.304 3.314 3.330 3.591 3.325 3.291 3.313 3.332 3.334 3.321 3.300 3.016
# coordination-number N 3.184 3.176 3.177 3.179
# coordination-number Ti 7.526
# coordination-number O 1.985 1.990 2.134
# coordination-number H 1.107 0.991 0.991
# diagonal-C6 C 24.28 24.08 23.94 23.96 24.16 24.37 24.02 19.92 23.98 24.14 24.25 24.03 24.21 24.26 24.03 20.49 24.56 24.28 24.09 23.93 24.02 24.27 24.27 24.02 23.93 24.09 24.27 24.57 19.94 24.02 24.26 24.22 23.94 24.24 24.14 23.98 20.38 24.02 24.36 24.16 23.96 23.94 24.07 24.28 25.64
# diagonal-C6 N 15.60 15.60 15.60 15.60
# diagonal-C6 Ti 321.59
# diagonal-C6 O 10.41 10.41 10.38
# diagonal-C6 H 3.06 3.09 3.09
EvdW_6 =   -0.044280
EvdW_8 =   -0.033614
Fluid solver invoked on fresh (random / LCAO) wavefunctions
Running a vacuum solve first:

-------- Initial electronic minimization -----------
	FillingsUpdate:  mu: -0.173223597  nElectrons: 233.000000  magneticMoment: [ Abs: 0.00454  Tot: +0.00003 ]
ElecMinimize: Iter:   0  G: -364.675096337451009  |grad|_K:  1.439e-04  alpha:  1.000e+00
	FillingsUpdate:  mu: -0.105857514  nElectrons: 233.000000  magneticMoment: [ Abs: 0.00250  Tot: +0.00003 ]
	SubspaceRotationAdjust: set factor to 1
ElecMinimize: Iter:   1  G: -367.709024429464534  |grad|_K:  4.516e-05  alpha:  6.807e-01  linmin:  1.779e-05  t[s]:   3406.76
	FillingsUpdate:  mu: -0.048423343  nElectrons: 233.000000  magneticMoment: [ Abs: 0.00235  Tot: +0.00007 ]
	SubspaceRotationAdjust: set factor to 0.608
ElecMinimize: Iter:   2  G: -367.789796939099517  |grad|_K:  4.918e-05  alpha:  1.124e-01  linmin:  1.131e-04  t[s]:   3525.24
	FillingsUpdate:  mu: -0.054018267  nElectrons: 233.000000  magneticMoment: [ Abs: 0.00202  Tot: +0.00025 ]
	SubspaceRotationAdjust: set factor to 0.411
ElecMinimize: Iter:   3  G: -367.879780668607737  |grad|_K:  5.002e-05  alpha:  1.582e-01  linmin: -4.428e-04  t[s]:   3643.01
	FillingsUpdate:  mu: -0.104646282  nElectrons: 233.000000  magneticMoment: [ Abs: 0.00133  Tot: +0.00013 ]
	SubspaceRotationAdjust: set factor to 0.181
ElecMinimize: Iter:   4  G: -367.980736681898861  |grad|_K:  2.265e-05  alpha:  1.353e-01  linmin:  3.389e-04  t[s]:   3760.98
ElecMinimize: 	Predicted alpha/alphaT>3.000000, increasing alphaT to 4.058219e-01.
	FillingsUpdate:  mu: -0.054851376  nElectrons: 233.000000  magneticMoment: [ Abs: 0.00134  Tot: +0.00074 ]
	SubspaceRotationAdjust: set factor to 0.0934
	SubspaceRotationAdjust: resetting CG because factor has changed by 0.093389
ElecMinimize: 	State modified externally: resetting search direction.
ElecMinimize: Iter:   5  G: -368.017629200198712  |grad|_K:  1.571e-05  alpha:  4.634e-01
	FillingsUpdate:  mu: -0.076826890  nElectrons: 233.000000  magneticMoment: [ Abs: 0.00110  Tot: +0.00061 ]
	SubspaceRotationAdjust: set factor to 0.228
ElecMinimize: Iter:   6  G: -368.039802304842283  |grad|_K:  8.166e-06  alpha:  4.142e-01  linmin: -9.287e-04  t[s]:   4094.75
	FillingsUpdate:  mu: -0.052943783  nElectrons: 233.000000  magneticMoment: [ Abs: 0.00119  Tot: +0.00084 ]
	SubspaceRotationAdjust: set factor to 0.223
ElecMinimize: Iter:   7  G: -368.047358852583159  |grad|_K:  5.201e-06  alpha:  5.144e-01  linmin:  1.335e-04  t[s]:   4212.17
	FillingsUpdate:  mu: -0.063288420  nElectrons: 233.000000  magneticMoment: [ Abs: 0.00154  Tot: +0.00138 ]
	SubspaceRotationAdjust: set factor to 0.218
ElecMinimize: Iter:   8  G: -368.052536678335343  |grad|_K:  3.734e-06  alpha:  8.822e-01  linmin: -5.050e-06  t[s]:   4330.41
	FillingsUpdate:  mu: -0.053067474  nElectrons: 233.000000  magneticMoment: [ Abs: 0.00244  Tot: +0.00233 ]
	SubspaceRotationAdjust: set factor to 0.158
ElecMinimize: Iter:   9  G: -368.053791664055723  |grad|_K:  3.647e-06  alpha:  3.997e-01  linmin: -4.995e-05  t[s]:   4448.99
	FillingsUpdate:  mu: -0.055783545  nElectrons: 233.000000  magneticMoment: [ Abs: 0.00388  Tot: +0.00378 ]
	SubspaceRotationAdjust: set factor to 0.147
ElecMinimize: Iter:  10  G: -368.055226836088650  |grad|_K:  1.601e-06  alpha:  4.901e-01  linmin: -1.712e-05  t[s]:   4566.94
	FillingsUpdate:  mu: -0.054533313  nElectrons: 233.000000  magneticMoment: [ Abs: 0.00598  Tot: +0.00584 ]
	SubspaceRotationAdjust: set factor to 0.166
ElecMinimize: Iter:  11  G: -368.055632004200675  |grad|_K:  1.096e-06  alpha:  7.235e-01  linmin:  9.294e-06  t[s]:   4684.57
	FillingsUpdate:  mu: -0.054717576  nElectrons: 233.000000  magneticMoment: [ Abs: 0.00926  Tot: +0.00903 ]
	SubspaceRotationAdjust: set factor to 0.178
ElecMinimize: Iter:  12  G: -368.055820567132628  |grad|_K:  9.441e-07  alpha:  7.220e-01  linmin:  4.179e-06  t[s]:   4803.28
	FillingsUpdate:  mu: -0.054796019  nElectrons: 233.000000  magneticMoment: [ Abs: 0.01497  Tot: +0.01462 ]
	SubspaceRotationAdjust: set factor to 0.191
ElecMinimize: Iter:  13  G: -368.055944741950611  |grad|_K:  6.385e-07  alpha:  6.399e-01  linmin:  4.454e-06  t[s]:   4922.17
	FillingsUpdate:  mu: -0.055473171  nElectrons: 233.000000  magneticMoment: [ Abs: 0.02347  Tot: +0.02293 ]
	SubspaceRotationAdjust: set factor to 0.21
ElecMinimize: Iter:  14  G: -368.056001821343330  |grad|_K:  3.802e-07  alpha:  6.434e-01  linmin:  2.640e-06  t[s]:   5041.57
	FillingsUpdate:  mu: -0.054783880  nElectrons: 233.000000  magneticMoment: [ Abs: 0.03944  Tot: +0.03860 ]
	SubspaceRotationAdjust: set factor to 0.185
ElecMinimize: Iter:  15  G: -368.056025876915214  |grad|_K:  4.127e-07  alpha:  7.649e-01  linmin:  1.707e-05  t[s]:   5159.66
	FillingsUpdate:  mu: -0.056412569  nElectrons: 233.000000  magneticMoment: [ Abs: 0.07435  Tot: +0.07277 ]
	SubspaceRotationAdjust: set factor to 0.16
ElecMinimize: Iter:  16  G: -368.056051484714430  |grad|_K:  6.285e-07  alpha:  6.971e-01  linmin: -2.938e-05  t[s]:   5278.64
ElecMinimize: 	Predicted alpha/alphaT>3.000000, increasing alphaT to 2.091211e+00.
	FillingsUpdate:  mu: -0.056089144  nElectrons: 233.000000  magneticMoment: [ Abs: 0.14937  Tot: +0.14607 ]
	SubspaceRotationAdjust: set factor to 0.151
ElecMinimize: Iter:  17  G: -368.056135785725530  |grad|_K:  8.249e-07  alpha:  4.827e-01  linmin: -9.928e-04  t[s]:   5426.56
	FillingsUpdate:  mu: -0.053686446  nElectrons: 233.000000  magneticMoment: [ Abs: 0.27877  Tot: +0.27138 ]
	SubspaceRotationAdjust: set factor to 0.139
ElecMinimize: Iter:  18  G: -368.056268097562736  |grad|_K:  1.735e-06  alpha:  4.525e-01  linmin:  4.194e-04  t[s]:   5545.50
	FillingsUpdate:  mu: -0.053524326  nElectrons: 233.000000  magneticMoment: [ Abs: 0.28826  Tot: +0.28054 ]
	SubspaceRotationAdjust: set factor to 0.132
ElecMinimize: Iter:  19  G: -368.056270241343611  |grad|_K:  1.804e-06  alpha:  8.719e-03  linmin:  3.005e-06  t[s]:   5663.30
ElecMinimize: 	Predicted alpha/alphaT>3.000000, increasing alphaT to 2.615844e-02.
	FillingsUpdate:  mu: -0.053360325  nElectrons: 233.000000  magneticMoment: [ Abs: 0.32014  Tot: +0.31075 ]
	SubspaceRotationAdjust: set factor to 0.124
ElecMinimize: Iter:  20  G: -368.056290556611771  |grad|_K:  1.954e-06  alpha:  2.887e-02  linmin:  8.193e-06  t[s]:   5811.69
	FillingsUpdate:  mu: -0.053310240  nElectrons: 233.000000  magneticMoment: [ Abs: 0.34872  Tot: +0.33733 ]
	SubspaceRotationAdjust: set factor to 0.115
ElecMinimize: Iter:  21  G: -368.056311465219096  |grad|_K:  2.004e-06  alpha:  2.557e-02  linmin: -5.188e-06  t[s]:   5930.31
	FillingsUpdate:  mu: -0.053339063  nElectrons: 233.000000  magneticMoment: [ Abs: 0.37550  Tot: +0.36156 ]
	SubspaceRotationAdjust: set factor to 0.105
ElecMinimize: Iter:  22  G: -368.056335656635838  |grad|_K:  1.947e-06  alpha:  2.728e-02  linmin: -2.411e-05  t[s]:   6048.39
	FillingsUpdate:  mu: -0.053456984  nElectrons: 233.000000  magneticMoment: [ Abs: 0.40002  Tot: +0.38280 ]
	SubspaceRotationAdjust: set factor to 0.095
ElecMinimize: Iter:  23  G: -368.056363978905949  |grad|_K:  1.768e-06  alpha:  3.259e-02  linmin: -4.533e-05  t[s]:   6167.28
	FillingsUpdate:  mu: -0.053720331  nElectrons: 233.000000  magneticMoment: [ Abs: 0.42006  Tot: +0.39907 ]
	SubspaceRotationAdjust: set factor to 0.0919
ElecMinimize: Iter:  24  G: -368.056393372571506  |grad|_K:  1.510e-06  alpha:  4.024e-02  linmin: -4.632e-05  t[s]:   6285.21
	FillingsUpdate:  mu: -0.054243169  nElectrons: 233.000000  magneticMoment: [ Abs: 0.43404  Tot: +0.40952 ]
	SubspaceRotationAdjust: set factor to 0.112
ElecMinimize: Iter:  25  G: -368.056418388616805  |grad|_K:  1.311e-06  alpha:  4.771e-02  linmin: -2.604e-05  t[s]:   6402.78
	FillingsUpdate:  mu: -0.055118107  nElectrons: 233.000000  magneticMoment: [ Abs: 0.44380  Tot: +0.41612 ]
	SubspaceRotationAdjust: set factor to 0.151
ElecMinimize: Iter:  26  G: -368.056439039207760  |grad|_K:  1.251e-06  alpha:  5.352e-02  linmin: -1.439e-05  t[s]:   6521.42
	FillingsUpdate:  mu: -0.056322574  nElectrons: 233.000000  magneticMoment: [ Abs: 0.45152  Tot: +0.42088 ]
	SubspaceRotationAdjust: set factor to 0.183
ElecMinimize: Iter:  27  G: -368.056457891891796  |grad|_K:  1.266e-06  alpha:  5.443e-02  linmin: -9.992e-06  t[s]:   6638.99
	FillingsUpdate:  mu: -0.057829238  nElectrons: 233.000000  magneticMoment: [ Abs: 0.45909  Tot: +0.42530 ]
	SubspaceRotationAdjust: set factor to 0.218
ElecMinimize: Iter:  28  G: -368.056477159396991  |grad|_K:  1.335e-06  alpha:  5.454e-02  linmin: -9.769e-06  t[s]:   6757.29
	FillingsUpdate:  mu: -0.059334921  nElectrons: 233.000000  magneticMoment: [ Abs: 0.46849  Tot: +0.43102 ]
	SubspaceRotationAdjust: set factor to 0.256
ElecMinimize: Iter:  29  G: -368.056498912150971  |grad|_K:  1.452e-06  alpha:  5.551e-02  linmin: -1.173e-05  t[s]:   6874.95
	FillingsUpdate:  mu: -0.060087491  nElectrons: 233.000000  magneticMoment: [ Abs: 0.48094  Tot: +0.43910 ]
	SubspaceRotationAdjust: set factor to 0.23
ElecMinimize: Iter:  30  G: -368.056522998676371  |grad|_K:  1.531e-06  alpha:  5.198e-02  linmin: -1.244e-05  t[s]:   6993.96
	FillingsUpdate:  mu: -0.059698265  nElectrons: 233.000000  magneticMoment: [ Abs: 0.49533  Tot: +0.44897 ]
	SubspaceRotationAdjust: set factor to 0.228
ElecMinimize: Iter:  31  G: -368.056546176328368  |grad|_K:  1.410e-06  alpha:  4.511e-02  linmin: -1.258e-05  t[s]:   7111.55
	FillingsUpdate:  mu: -0.058560974  nElectrons: 233.000000  magneticMoment: [ Abs: 0.50986  Tot: +0.45920 ]
	SubspaceRotationAdjust: set factor to 0.303
ElecMinimize: Iter:  32  G: -368.056566808327204  |grad|_K:  1.337e-06  alpha:  4.739e-02  linmin: -1.905e-05  t[s]:   7231.57
	FillingsUpdate:  mu: -0.057218158  nElectrons: 233.000000  magneticMoment: [ Abs: 0.52507  Tot: +0.46986 ]
	SubspaceRotationAdjust: set factor to 0.386
ElecMinimize: Iter:  33  G: -368.056587382510884  |grad|_K:  1.424e-06  alpha:  5.238e-02  linmin: -2.153e-05  t[s]:   7350.36
	FillingsUpdate:  mu: -0.056047183  nElectrons: 233.000000  magneticMoment: [ Abs: 0.54274  Tot: +0.48162 ]
	SubspaceRotationAdjust: set factor to 0.48
ElecMinimize: Iter:  34  G: -368.056612079855086  |grad|_K:  1.636e-06  alpha:  5.512e-02  linmin: -1.702e-05  t[s]:   7469.47
	FillingsUpdate:  mu: -0.055322318  nElectrons: 233.000000  magneticMoment: [ Abs: 0.56384  Tot: +0.49402 ]
	SubspaceRotationAdjust: set factor to 0.506
ElecMinimize: Iter:  35  G: -368.056645833561333  |grad|_K:  1.892e-06  alpha:  5.690e-02  linmin: -1.075e-05  t[s]:   7587.47
	FillingsUpdate:  mu: -0.055354593  nElectrons: 233.000000  magneticMoment: [ Abs: 0.58292  Tot: +0.50294 ]
	SubspaceRotationAdjust: set factor to 0.55
ElecMinimize: Iter:  36  G: -368.056683084894246  |grad|_K:  1.819e-06  alpha:  4.719e-02  linmin: -1.862e-06  t[s]:   7706.47
	FillingsUpdate:  mu: -0.056048434  nElectrons: 233.000000  magneticMoment: [ Abs: 0.59470  Tot: +0.50663 ]
	SubspaceRotationAdjust: set factor to 0.752
	SubspaceRotationAdjust: resetting CG because factor has changed by 8.05407
ElecMinimize: 	State modified externally: resetting search direction.
ElecMinimize: Iter:  37  G: -368.056712001750100  |grad|_K:  1.675e-06  alpha:  4.008e-02
ElecMinimize: 	Predicted alpha/alphaT>3.000000, increasing alphaT to 1.202303e-01.
	FillingsUpdate:  mu: -0.062495570  nElectrons: 233.000000  magneticMoment: [ Abs: 0.57341  Tot: +0.48548 ]
	SubspaceRotationAdjust: set factor to 0.44
ElecMinimize: Iter:  38  G: -368.056878483020455  |grad|_K:  2.576e-06  alpha:  2.891e-01  linmin:  3.327e-04  t[s]:   8039.89
	FillingsUpdate:  mu: -0.057873619  nElectrons: 233.000000  magneticMoment: [ Abs: 0.57595  Tot: +0.48426 ]
	SubspaceRotationAdjust: set factor to 0.93
ElecMinimize: Iter:  39  G: -368.057146437584493  |grad|_K:  1.005e-06  alpha:  2.092e-01  linmin: -3.305e-06  t[s]:   8158.50
	FillingsUpdate:  mu: -0.055417799  nElectrons: 233.000000  magneticMoment: [ Abs: 0.58072  Tot: +0.48849 ]
	SubspaceRotationAdjust: set factor to 0.555
ElecMinimize: Iter:  40  G: -368.057191077538562  |grad|_K:  1.178e-06  alpha:  2.024e-01  linmin: -8.806e-06  t[s]:   8276.03
	FillingsUpdate:  mu: -0.057154613  nElectrons: 233.000000  magneticMoment: [ Abs: 0.56717  Tot: +0.47545 ]
	SubspaceRotationAdjust: set factor to 0.27
ElecMinimize: Iter:  41  G: -368.057240160019774  |grad|_K:  4.492e-07  alpha:  1.602e-01  linmin:  2.162e-05  t[s]:   8393.10
	FillingsUpdate:  mu: -0.056099501  nElectrons: 233.000000  magneticMoment: [ Abs: 0.56696  Tot: +0.47585 ]
	SubspaceRotationAdjust: set factor to 0.18
ElecMinimize: Iter:  42  G: -368.057258129626234  |grad|_K:  3.569e-07  alpha:  4.122e-01  linmin:  3.789e-07  t[s]:   8511.31
	FillingsUpdate:  mu: -0.057035122  nElectrons: 233.000000  magneticMoment: [ Abs: 0.56165  Tot: +0.47129 ]
	SubspaceRotationAdjust: set factor to 0.13
ElecMinimize: Iter:  43  G: -368.057267401956608  |grad|_K:  2.408e-07  alpha:  3.335e-01  linmin:  7.995e-06  t[s]:   8628.89
	FillingsUpdate:  mu: -0.057078994  nElectrons: 233.000000  magneticMoment: [ Abs: 0.55880  Tot: +0.46921 ]
	SubspaceRotationAdjust: set factor to 0.151
ElecMinimize: Iter:  44  G: -368.057275679482132  |grad|_K:  2.180e-07  alpha:  6.568e-01  linmin:  3.431e-06  t[s]:   8746.89
	FillingsUpdate:  mu: -0.056620525  nElectrons: 233.000000  magneticMoment: [ Abs: 0.55840  Tot: +0.46925 ]
	SubspaceRotationAdjust: set factor to 0.142
ElecMinimize: Iter:  45  G: -368.057281315357159  |grad|_K:  1.737e-07  alpha:  5.444e-01  linmin:  5.292e-06  t[s]:   8859.19
	FillingsUpdate:  mu: -0.056934220  nElectrons: 233.000000  magneticMoment: [ Abs: 0.55710  Tot: +0.46816 ]
	SubspaceRotationAdjust: set factor to 0.138
ElecMinimize: Iter:  46  G: -368.057285032894981  |grad|_K:  1.408e-07  alpha:  5.659e-01  linmin:  7.534e-06  t[s]:   8972.78
	FillingsUpdate:  mu: -0.056807073  nElectrons: 233.000000  magneticMoment: [ Abs: 0.55721  Tot: +0.46827 ]
	SubspaceRotationAdjust: set factor to 0.157
ElecMinimize: Iter:  47  G: -368.057287272531653  |grad|_K:  1.013e-07  alpha:  5.194e-01  linmin:  4.633e-06  t[s]:   9088.99
	FillingsUpdate:  mu: -0.056645262  nElectrons: 233.000000  magneticMoment: [ Abs: 0.55747  Tot: +0.46847 ]
	SubspaceRotationAdjust: set factor to 0.169
ElecMinimize: Iter:  48  G: -368.057288591298061  |grad|_K:  8.737e-08  alpha:  5.907e-01  linmin:  4.114e-06  t[s]:   9205.47
	FillingsUpdate:  mu: -0.056882157  nElectrons: 233.000000  magneticMoment: [ Abs: 0.55682  Tot: +0.46781 ]
	SubspaceRotationAdjust: set factor to 0.158
ElecMinimize: Iter:  49  G: -368.057289425771899  |grad|_K:  6.884e-08  alpha:  5.026e-01  linmin:  2.317e-06  t[s]:   9322.41
	FillingsUpdate:  mu: -0.056787162  nElectrons: 233.000000  magneticMoment: [ Abs: 0.55711  Tot: +0.46814 ]
	SubspaceRotationAdjust: set factor to 0.192
ElecMinimize: Iter:  50  G: -368.057290001884951  |grad|_K:  4.855e-08  alpha:  5.589e-01  linmin:  2.198e-06  t[s]:   9438.46
	FillingsUpdate:  mu: -0.056693854  nElectrons: 233.000000  magneticMoment: [ Abs: 0.55729  Tot: +0.46842 ]
	SubspaceRotationAdjust: set factor to 0.209
ElecMinimize: Iter:  51  G: -368.057290282374140  |grad|_K:  4.219e-08  alpha:  5.476e-01  linmin:  1.316e-06  t[s]:   9554.58
	FillingsUpdate:  mu: -0.056820323  nElectrons: 233.000000  magneticMoment: [ Abs: 0.55684  Tot: +0.46811 ]
	SubspaceRotationAdjust: set factor to 0.179
ElecMinimize: Iter:  52  G: -368.057290472614284  |grad|_K:  3.521e-08  alpha:  4.913e-01  linmin:  8.294e-07  t[s]:   9671.16
	FillingsUpdate:  mu: -0.056764970  nElectrons: 233.000000  magneticMoment: [ Abs: 0.55695  Tot: +0.46840 ]
	SubspaceRotationAdjust: set factor to 0.199
ElecMinimize: Iter:  53  G: -368.057290613250814  |grad|_K:  2.557e-08  alpha:  5.213e-01  linmin:  7.333e-07  t[s]:   9787.43
	FillingsUpdate:  mu: -0.056733009  nElectrons: 233.000000  magneticMoment: [ Abs: 0.55702  Tot: +0.46863 ]
	SubspaceRotationAdjust: set factor to 0.213
ElecMinimize: Iter:  54  G: -368.057290698205463  |grad|_K:  1.975e-08  alpha:  5.971e-01  linmin:  7.607e-08  t[s]:   9903.84
	FillingsUpdate:  mu: -0.056791420  nElectrons: 233.000000  magneticMoment: [ Abs: 0.55683  Tot: +0.46856 ]
	SubspaceRotationAdjust: set factor to 0.176
ElecMinimize: Iter:  55  G: -368.057290739562177  |grad|_K:  1.689e-08  alpha:  4.856e-01  linmin:  2.102e-07  t[s]:  10019.94
ElecMinimize: Converged (|Delta G|<1.000000e-07 for 2 iters).
Setting wave functions to eigenvectors of Hamiltonian
Converging empty states (this may take a while): |deigs|: 6.992e-03
Vacuum energy after initial minimize, F = -368.057290739562177

Shifting auxilliary hamiltonian by -0.103409 to set nElectrons=233.000000

-------- Electronic minimization -----------
	Linear fluid (dielectric constant: 78.4, screening length: 8.12261 Bohr) occupying 0.707926 of unit cell:	Completed after 23 iterations at t[s]:  10639.34
	FillingsUpdate:  mu: -0.160200000  nElectrons: 233.000000  magneticMoment: [ Abs: 0.55901  Tot: +0.47085 ]
ElecMinimize: Iter:   0  G: -368.067359774749661  |grad|_K:  1.136e-05  alpha:  1.000e+00
	Linear fluid (dielectric constant: 78.4, screening length: 8.12261 Bohr) occupying 0.708008 of unit cell:	Completed after 20 iterations at t[s]:  10752.85
	Linear fluid (dielectric constant: 78.4, screening length: 8.12261 Bohr) occupying 0.707710 of unit cell:	Completed after 16 iterations at t[s]:  10799.93
ElecMinimize: 	Step increased G by 1.031685e-03, reducing alpha to 4.629956e-02.
	Linear fluid (dielectric constant: 78.4, screening length: 8.12261 Bohr) occupying 0.707825 of unit cell:	Completed after 19 iterations at t[s]:  10897.00
	FillingsUpdate:  mu: -0.160200000  nElectrons: 232.929078  magneticMoment: [ Abs: 0.51202  Tot: +0.41740 ]
	SubspaceRotationAdjust: set factor to 0.103
ElecMinimize: Iter:   1  G: -368.069554990288339  |grad|_K:  8.281e-06  alpha:  4.630e-02  linmin: -2.997e-02  t[s]:  10948.31
	Linear fluid (dielectric constant: 78.4, screening length: 8.12261 Bohr) occupying 0.707758 of unit cell:	Completed after 15 iterations at t[s]:  11001.16
	Linear fluid (dielectric constant: 78.4, screening length: 8.12261 Bohr) occupying 0.707717 of unit cell:	Completed after 16 iterations at t[s]:  11048.08
	FillingsUpdate:  mu: -0.160200000  nElectrons: 232.755989  magneticMoment: [ Abs: 0.39796  Tot: +0.28172 ]
	SubspaceRotationAdjust: set factor to 0.107
ElecMinimize: Iter:   2  G: -368.072351275282983  |grad|_K:  6.017e-06  alpha:  1.053e-01  linmin: -2.121e-03  t[s]:  11099.53
	Linear fluid (dielectric constant: 78.4, screening length: 8.12261 Bohr) occupying 0.707811 of unit cell:	Completed after 13 iterations at t[s]:  11150.64
ElecMinimize: 	Predicted alpha/alphaT>3.000000, increasing alphaT to 3.158543e-01.
	Linear fluid (dielectric constant: 78.4, screening length: 8.12261 Bohr) occupying 0.708034 of unit cell:	Completed after 14 iterations at t[s]:  11196.06
	Linear fluid (dielectric constant: 78.4, screening length: 8.12261 Bohr) occupying 0.708160 of unit cell:	Completed after 11 iterations at t[s]:  11239.95
	FillingsUpdate:  mu: -0.160200000  nElectrons: 232.573022  magneticMoment: [ Abs: 0.28731  Tot: +0.12697 ]
	SubspaceRotationAdjust: set factor to 0.0772
ElecMinimize: Iter:   3  G: -368.076798702430040  |grad|_K:  5.556e-06  alpha:  4.260e-01  linmin: -3.662e-03  t[s]:  11290.76
	Linear fluid (dielectric constant: 78.4, screening length: 8.12261 Bohr) occupying 0.708977 of unit cell:	Completed after 17 iterations at t[s]:  11344.79
	Linear fluid (dielectric constant: 78.4, screening length: 8.12261 Bohr) occupying 0.708695 of unit cell:	Completed after 15 iterations at t[s]:  11390.98
	FillingsUpdate:  mu: -0.160200000  nElectrons: 232.581813  magneticMoment: [ Abs: 0.30835  Tot: +0.13752 ]
	SubspaceRotationAdjust: set factor to 0.0688
ElecMinimize: Iter:   4  G: -368.079474529412266  |grad|_K:  3.984e-06  alpha:  2.823e-01  linmin: -2.088e-05  t[s]:  11441.92
	Linear fluid (dielectric constant: 78.4, screening length: 8.12261 Bohr) occupying 0.709053 of unit cell:	Completed after 13 iterations at t[s]:  11493.41
	Linear fluid (dielectric constant: 78.4, screening length: 8.12261 Bohr) occupying 0.709258 of unit cell:	Completed after 11 iterations at t[s]:  11537.26
	FillingsUpdate:  mu: -0.160200000  nElectrons: 232.563588  magneticMoment: [ Abs: 0.30987  Tot: +0.12182 ]
	SubspaceRotationAdjust: set factor to 0.0708
ElecMinimize: Iter:   5  G: -368.081001684033140  |grad|_K:  3.511e-06  alpha:  4.430e-01  linmin:  1.068e-04  t[s]:  11588.70
	Linear fluid (dielectric constant: 78.4, screening length: 8.12261 Bohr) occupying 0.709667 of unit cell:	Completed after 13 iterations at t[s]:  11640.79
	Linear fluid (dielectric constant: 78.4, screening length: 8.12261 Bohr) occupying 0.709596 of unit cell:	Completed after 4 iterations at t[s]:  11680.53
	FillingsUpdate:  mu: -0.160200000  nElectrons: 232.511122  magneticMoment: [ Abs: 0.28328  Tot: +0.08124 ]
	SubspaceRotationAdjust: set factor to 0.0876
ElecMinimize: Iter:   6  G: -368.081945940832099  |grad|_K:  3.267e-06  alpha:  3.676e-01  linmin: -1.366e-04  t[s]:  11732.20
	Linear fluid (dielectric constant: 78.4, screening length: 8.12261 Bohr) occupying 0.709858 of unit cell:	Completed after 14 iterations at t[s]:  11785.24
	Linear fluid (dielectric constant: 78.4, screening length: 8.12261 Bohr) occupying 0.710114 of unit cell:	Completed after 15 iterations at t[s]:  11832.28
	FillingsUpdate:  mu: -0.160200000  nElectrons: 232.332942  magneticMoment: [ Abs: 0.23251  Tot: +0.12907 ]
	SubspaceRotationAdjust: set factor to 0.0964
ElecMinimize: Iter:   7  G: -368.083753907928383  |grad|_K:  2.775e-06  alpha:  7.317e-01  linmin:  3.296e-04  t[s]:  11884.02
	Linear fluid (dielectric constant: 78.4, screening length: 8.12261 Bohr) occupying 0.710413 of unit cell:	Completed after 13 iterations at t[s]:  11935.88
	Linear fluid (dielectric constant: 78.4, screening length: 8.12261 Bohr) occupying 0.710307 of unit cell:	Completed after 11 iterations at t[s]:  11980.28
	FillingsUpdate:  mu: -0.160200000  nElectrons: 232.223480  magneticMoment: [ Abs: 0.23864  Tot: +0.16550 ]
	SubspaceRotationAdjust: set factor to 0.1
ElecMinimize: Iter:   8  G: -368.084427956911327  |grad|_K:  2.486e-06  alpha:  4.691e-01  linmin:  1.966e-05  t[s]:  12031.52
	Linear fluid (dielectric constant: 78.4, screening length: 8.12261 Bohr) occupying 0.710430 of unit cell:	Completed after 13 iterations at t[s]:  12082.82
	Linear fluid (dielectric constant: 78.4, screening length: 8.12261 Bohr) occupying 0.710424 of unit cell:	Completed after 2 iterations at t[s]:  12120.04
	FillingsUpdate:  mu: -0.160200000  nElectrons: 232.155023  magneticMoment: [ Abs: 0.21587  Tot: +0.13729 ]
	SubspaceRotationAdjust: set factor to 0.112
ElecMinimize: Iter:   9  G: -368.085026215548453  |grad|_K:  1.496e-06  alpha:  4.474e-01  linmin: -2.237e-05  t[s]:  12169.74
	Linear fluid (dielectric constant: 78.4, screening length: 8.12261 Bohr) occupying 0.710458 of unit cell:	Completed after 8 iterations at t[s]:  12217.01
	Linear fluid (dielectric constant: 78.4, screening length: 8.12261 Bohr) occupying 0.710458 of unit cell:	Completed after 1 iterations at t[s]:  12254.22
	FillingsUpdate:  mu: -0.160200000  nElectrons: 232.132656  magneticMoment: [ Abs: 0.20198  Tot: +0.11988 ]
	SubspaceRotationAdjust: set factor to 0.127
ElecMinimize: Iter:  10  G: -368.085249062415073  |grad|_K:  1.248e-06  alpha:  4.548e-01  linmin: -3.195e-06  t[s]:  12306.14
	Linear fluid (dielectric constant: 78.4, screening length: 8.12261 Bohr) occupying 0.710482 of unit cell:	Completed after 6 iterations at t[s]:  12353.51
	Linear fluid (dielectric constant: 78.4, screening length: 8.12261 Bohr) occupying 0.710486 of unit cell:	Completed after 3 iterations at t[s]:  12392.54
	FillingsUpdate:  mu: -0.160200000  nElectrons: 232.123644  magneticMoment: [ Abs: 0.19157  Tot: +0.11112 ]
	SubspaceRotationAdjust: set factor to 0.159
ElecMinimize: Iter:  11  G: -368.085432416574633  |grad|_K:  9.629e-07  alpha:  5.404e-01  linmin:  1.372e-05  t[s]:  12444.04
	Linear fluid (dielectric constant: 78.4, screening length: 8.12261 Bohr) occupying 0.710506 of unit cell:	Completed after 7 iterations at t[s]:  12492.15
	Linear fluid (dielectric constant: 78.4, screening length: 8.12261 Bohr) occupying 0.710505 of unit cell:	Completed after 0 iterations at t[s]:  12528.21
	FillingsUpdate:  mu: -0.160200000  nElectrons: 232.127328  magneticMoment: [ Abs: 0.18498  Tot: +0.11097 ]
	SubspaceRotationAdjust: set factor to 0.196
ElecMinimize: Iter:  12  G: -368.085537775353203  |grad|_K:  9.638e-07  alpha:  5.226e-01  linmin:  3.254e-05  t[s]:  12580.24
	Linear fluid (dielectric constant: 78.4, screening length: 8.12261 Bohr) occupying 0.710523 of unit cell:	Completed after 9 iterations at t[s]:  12629.49
	Linear fluid (dielectric constant: 78.4, screening length: 8.12261 Bohr) occupying 0.710524 of unit cell:	Completed after 2 iterations at t[s]:  12667.76
	FillingsUpdate:  mu: -0.160200000  nElectrons: 232.141638  magneticMoment: [ Abs: 0.17470  Tot: +0.11230 ]
	SubspaceRotationAdjust: set factor to 0.248
ElecMinimize: Iter:  13  G: -368.085651374768190  |grad|_K:  8.576e-07  alpha:  5.659e-01  linmin: -1.962e-05  t[s]:  12719.36
	Linear fluid (dielectric constant: 78.4, screening length: 8.12261 Bohr) occupying 0.710531 of unit cell:	Completed after 10 iterations at t[s]:  12769.72
	Linear fluid (dielectric constant: 78.4, screening length: 8.12261 Bohr) occupying 0.710531 of unit cell:	Completed after 3 iterations at t[s]:  12808.37
	FillingsUpdate:  mu: -0.160200000  nElectrons: 232.170742  magneticMoment: [ Abs: 0.16605  Tot: +0.11406 ]
	SubspaceRotationAdjust: set factor to 0.29
ElecMinimize: Iter:  14  G: -368.085734680319206  |grad|_K:  7.974e-07  alpha:  5.140e-01  linmin:  4.773e-05  t[s]:  12860.09
	Linear fluid (dielectric constant: 78.4, screening length: 8.12261 Bohr) occupying 0.710519 of unit cell:	Completed after 11 iterations at t[s]:  12910.97
	Linear fluid (dielectric constant: 78.4, screening length: 8.12261 Bohr) occupying 0.710522 of unit cell:	Completed after 8 iterations at t[s]:  12953.07
	FillingsUpdate:  mu: -0.160200000  nElectrons: 232.202326  magneticMoment: [ Abs: 0.15540  Tot: +0.10954 ]
	SubspaceRotationAdjust: set factor to 0.281
ElecMinimize: Iter:  15  G: -368.085787686321055  |grad|_K:  6.651e-07  alpha:  3.724e-01  linmin:  4.220e-05  t[s]:  13004.84
	Linear fluid (dielectric constant: 78.4, screening length: 8.12261 Bohr) occupying 0.710495 of unit cell:	Completed after 8 iterations at t[s]:  13053.72
	Linear fluid (dielectric constant: 78.4, screening length: 8.12261 Bohr) occupying 0.710497 of unit cell:	Completed after 2 iterations at t[s]:  13092.14
	FillingsUpdate:  mu: -0.160200000  nElectrons: 232.219653  magneticMoment: [ Abs: 0.14068  Tot: +0.09898 ]
	SubspaceRotationAdjust: set factor to 0.295
ElecMinimize: Iter:  16  G: -368.085819855568388  |grad|_K:  6.031e-07  alpha:  3.378e-01  linmin:  7.237e-05  t[s]:  13144.08
	Linear fluid (dielectric constant: 78.4, screening length: 8.12261 Bohr) occupying 0.710458 of unit cell:	Completed after 7 iterations at t[s]:  13192.18
	Linear fluid (dielectric constant: 78.4, screening length: 8.12261 Bohr) occupying 0.710462 of unit cell:	Completed after 1 iterations at t[s]:  13229.77
	FillingsUpdate:  mu: -0.160200000  nElectrons: 232.223968  magneticMoment: [ Abs: 0.12466  Tot: +0.08733 ]
	SubspaceRotationAdjust: set factor to 0.403
ElecMinimize: Iter:  17  G: -368.085843684351289  |grad|_K:  5.007e-07  alpha:  3.077e-01  linmin: -3.483e-05  t[s]:  13281.64
	Linear fluid (dielectric constant: 78.4, screening length: 8.12261 Bohr) occupying 0.710429 of unit cell:	Completed after 8 iterations at t[s]:  13330.48
	Linear fluid (dielectric constant: 78.4, screening length: 8.12261 Bohr) occupying 0.710422 of unit cell:	Completed after 3 iterations at t[s]:  13369.60
	FillingsUpdate:  mu: -0.160200000  nElectrons: 232.219903  magneticMoment: [ Abs: 0.10770  Tot: +0.07580 ]
	SubspaceRotationAdjust: set factor to 0.45
ElecMinimize: Iter:  18  G: -368.085864345596406  |grad|_K:  4.946e-07  alpha:  3.730e-01  linmin: -9.837e-05  t[s]:  13420.19
	Linear fluid (dielectric constant: 78.4, screening length: 8.12261 Bohr) occupying 0.710386 of unit cell:	Completed after 7 iterations at t[s]:  13467.82
	Linear fluid (dielectric constant: 78.4, screening length: 8.12261 Bohr) occupying 0.710388 of unit cell:	Completed after 0 iterations at t[s]:  13504.05
	FillingsUpdate:  mu: -0.160200000  nElectrons: 232.215877  magneticMoment: [ Abs: 0.08901  Tot: +0.06353 ]
	SubspaceRotationAdjust: set factor to 0.568
ElecMinimize: Iter:  19  G: -368.085883657649390  |grad|_K:  3.953e-07  alpha:  3.544e-01  linmin:  9.185e-05  t[s]:  13556.04
	Linear fluid (dielectric constant: 78.4, screening length: 8.12261 Bohr) occupying 0.710376 of unit cell:	Completed after 6 iterations at t[s]:  13603.64
	Linear fluid (dielectric constant: 78.4, screening length: 8.12261 Bohr) occupying 0.710375 of unit cell:	Completed after 0 iterations at t[s]:  13639.67
	FillingsUpdate:  mu: -0.160200000  nElectrons: 232.211635  magneticMoment: [ Abs: 0.07283  Tot: +0.05270 ]
	SubspaceRotationAdjust: set factor to 0.605
ElecMinimize: Iter:  20  G: -368.085895705368614  |grad|_K:  3.958e-07  alpha:  3.611e-01  linmin:  8.925e-05  t[s]:  13691.70
	Linear fluid (dielectric constant: 78.4, screening length: 8.12261 Bohr) occupying 0.710373 of unit cell:	Completed after 7 iterations at t[s]:  13739.54
	Linear fluid (dielectric constant: 78.4, screening length: 8.12261 Bohr) occupying 0.710373 of unit cell:	Completed after 2 iterations at t[s]:  13777.89
	FillingsUpdate:  mu: -0.160200000  nElectrons: 232.202215  magneticMoment: [ Abs: 0.05632  Tot: +0.04108 ]
	SubspaceRotationAdjust: set factor to 0.664
ElecMinimize: Iter:  21  G: -368.085905092033329  |grad|_K:  3.216e-07  alpha:  2.838e-01  linmin:  7.649e-07  t[s]:  13829.58
	Linear fluid (dielectric constant: 78.4, screening length: 8.12261 Bohr) occupying 0.710384 of unit cell:	Completed after 3 iterations at t[s]:  13875.18
	Linear fluid (dielectric constant: 78.4, screening length: 8.12261 Bohr) occupying 0.710387 of unit cell:	Completed after 1 iterations at t[s]:  13912.63
	FillingsUpdate:  mu: -0.160200000  nElectrons: 232.197527  magneticMoment: [ Abs: 0.03943  Tot: +0.02891 ]
	SubspaceRotationAdjust: set factor to 0.742
ElecMinimize: Iter:  22  G: -368.085913240581647  |grad|_K:  2.814e-07  alpha:  3.606e-01  linmin: -3.674e-05  t[s]:  13964.38
	Linear fluid (dielectric constant: 78.4, screening length: 8.12261 Bohr) occupying 0.710412 of unit cell:	Completed after 8 iterations at t[s]:  14012.99
	Linear fluid (dielectric constant: 78.4, screening length: 8.12261 Bohr) occupying 0.710406 of unit cell:	Completed after 2 iterations at t[s]:  14051.24
	FillingsUpdate:  mu: -0.160200000  nElectrons: 232.200284  magneticMoment: [ Abs: 0.02799  Tot: +0.02052 ]
	SubspaceRotationAdjust: set factor to 0.666
ElecMinimize: Iter:  23  G: -368.085918070044329  |grad|_K:  2.542e-07  alpha:  2.740e-01  linmin:  4.455e-05  t[s]:  14102.80
	Linear fluid (dielectric constant: 78.4, screening length: 8.12261 Bohr) occupying 0.710426 of unit cell:	Completed after 3 iterations at t[s]:  14148.06
	Linear fluid (dielectric constant: 78.4, screening length: 8.12261 Bohr) occupying 0.710429 of unit cell:	Completed after 0 iterations at t[s]:  14184.55
	FillingsUpdate:  mu: -0.160200000  nElectrons: 232.199498  magneticMoment: [ Abs: 0.01568  Tot: +0.01108 ]
	SubspaceRotationAdjust: set factor to 0.672
ElecMinimize: Iter:  24  G: -368.085922449925590  |grad|_K:  2.025e-07  alpha:  3.152e-01  linmin: -7.936e-05  t[s]:  14236.34
	Linear fluid (dielectric constant: 78.4, screening length: 8.12261 Bohr) occupying 0.710445 of unit cell:	Completed after 2 iterations at t[s]:  14280.99
	Linear fluid (dielectric constant: 78.4, screening length: 8.12261 Bohr) occupying 0.710446 of unit cell:	Completed after 0 iterations at t[s]:  14317.21
	FillingsUpdate:  mu: -0.160200000  nElectrons: 232.198576  magneticMoment: [ Abs: 0.00708  Tot: +0.00394 ]
	SubspaceRotationAdjust: set factor to 0.713
ElecMinimize: Iter:  25  G: -368.085925556083339  |grad|_K:  1.858e-07  alpha:  3.359e-01  linmin: -1.689e-04  t[s]:  14368.94
	Linear fluid (dielectric constant: 78.4, screening length: 8.12261 Bohr) occupying 0.710461 of unit cell:	Completed after 3 iterations at t[s]:  14414.17
	Linear fluid (dielectric constant: 78.4, screening length: 8.12261 Bohr) occupying 0.710457 of unit cell:	Completed after 2 iterations at t[s]:  14452.25
	FillingsUpdate:  mu: -0.160200000  nElectrons: 232.200115  magneticMoment: [ Abs: 0.00471  Tot: -0.00076 ]
	SubspaceRotationAdjust: set factor to 0.65
ElecMinimize: Iter:  26  G: -368.085927493398856  |grad|_K:  1.511e-07  alpha:  2.480e-01  linmin:  1.264e-04  t[s]:  14503.93
	Linear fluid (dielectric constant: 78.4, screening length: 8.12261 Bohr) occupying 0.710461 of unit cell:	Completed after 2 iterations at t[s]:  14548.41
	Linear fluid (dielectric constant: 78.4, screening length: 8.12261 Bohr) occupying 0.710463 of unit cell:	Completed after 0 iterations at t[s]:  14584.85
	FillingsUpdate:  mu: -0.160200000  nElectrons: 232.199153  magneticMoment: [ Abs: 0.00748  Tot: -0.00492 ]
	SubspaceRotationAdjust: set factor to 0.791
ElecMinimize: Iter:  27  G: -368.085929109018821  |grad|_K:  1.218e-07  alpha:  3.279e-01  linmin: -1.374e-04  t[s]:  14636.24
	Linear fluid (dielectric constant: 78.4, screening length: 8.12261 Bohr) occupying 0.710462 of unit cell:	Completed after 3 iterations at t[s]:  14681.63
	Linear fluid (dielectric constant: 78.4, screening length: 8.12261 Bohr) occupying 0.710462 of unit cell:	Completed after 0 iterations at t[s]:  14717.76
	FillingsUpdate:  mu: -0.160200000  nElectrons: 232.197704  magneticMoment: [ Abs: 0.00965  Tot: -0.00687 ]
	SubspaceRotationAdjust: set factor to 0.729
ElecMinimize: Iter:  28  G: -368.085929962966134  |grad|_K:  1.357e-07  alpha:  2.606e-01  linmin:  5.239e-05  t[s]:  14769.31
	Linear fluid (dielectric constant: 78.4, screening length: 8.12261 Bohr) occupying 0.710460 of unit cell:	Completed after 2 iterations at t[s]:  14814.42
	Linear fluid (dielectric constant: 78.4, screening length: 8.12261 Bohr) occupying 0.710461 of unit cell:	Completed after 1 iterations at t[s]:  14851.80
	FillingsUpdate:  mu: -0.160200000  nElectrons: 232.198683  magneticMoment: [ Abs: 0.01127  Tot: -0.00828 ]
	SubspaceRotationAdjust: set factor to 0.67
ElecMinimize: Iter:  29  G: -368.085930609341005  |grad|_K:  9.409e-08  alpha:  1.725e-01  linmin:  3.402e-05  t[s]:  14903.54
	Linear fluid (dielectric constant: 78.4, screening length: 8.12261 Bohr) occupying 0.710458 of unit cell:	Completed after 0 iterations at t[s]:  14946.19
	Linear fluid (dielectric constant: 78.4, screening length: 8.12261 Bohr) occupying 0.710456 of unit cell:	Completed after 1 iterations at t[s]:  14983.61
	FillingsUpdate:  mu: -0.160200000  nElectrons: 232.199712  magneticMoment: [ Abs: 0.01215  Tot: -0.00909 ]
	SubspaceRotationAdjust: set factor to 0.783
ElecMinimize: Iter:  30  G: -368.085931219003555  |grad|_K:  7.535e-08  alpha:  3.400e-01  linmin:  9.999e-05  t[s]:  15035.57
	Linear fluid (dielectric constant: 78.4, screening length: 8.12261 Bohr) occupying 0.710451 of unit cell:	Completed after 3 iterations at t[s]:  15081.18
	Linear fluid (dielectric constant: 78.4, screening length: 8.12261 Bohr) occupying 0.710452 of unit cell:	Completed after 0 iterations at t[s]:  15117.53
	FillingsUpdate:  mu: -0.160200000  nElectrons: 232.200108  magneticMoment: [ Abs: 0.01206  Tot: -0.00908 ]
	SubspaceRotationAdjust: set factor to 0.746
ElecMinimize: Iter:  31  G: -368.085931531157087  |grad|_K:  7.676e-08  alpha:  2.687e-01  linmin: -4.098e-07  t[s]:  15169.47
	Linear fluid (dielectric constant: 78.4, screening length: 8.12261 Bohr) occupying 0.710448 of unit cell:	Completed after 1 iterations at t[s]:  15213.45
	Linear fluid (dielectric constant: 78.4, screening length: 8.12261 Bohr) occupying 0.710449 of unit cell:	Completed after 0 iterations at t[s]:  15249.77
	FillingsUpdate:  mu: -0.160200000  nElectrons: 232.201340  magneticMoment: [ Abs: 0.01153  Tot: -0.00870 ]
	SubspaceRotationAdjust: set factor to 0.617
ElecMinimize: Iter:  32  G: -368.085931799800903  |grad|_K:  6.311e-08  alpha:  2.097e-01  linmin:  1.085e-04  t[s]:  15301.25
	Linear fluid (dielectric constant: 78.4, screening length: 8.12261 Bohr) occupying 0.710445 of unit cell:	Completed after 0 iterations at t[s]:  15344.49
	Linear fluid (dielectric constant: 78.4, screening length: 8.12261 Bohr) occupying 0.710444 of unit cell:	Completed after 0 iterations at t[s]:  15381.23
	FillingsUpdate:  mu: -0.160200000  nElectrons: 232.201173  magneticMoment: [ Abs: 0.01051  Tot: -0.00792 ]
	SubspaceRotationAdjust: set factor to 0.843
ElecMinimize: Iter:  33  G: -368.085932030622075  |grad|_K:  5.056e-08  alpha:  2.654e-01  linmin: -3.858e-04  t[s]:  15433.32
	Linear fluid (dielectric constant: 78.4, screening length: 8.12261 Bohr) occupying 0.710441 of unit cell:	Completed after 1 iterations at t[s]:  15477.29
	Linear fluid (dielectric constant: 78.4, screening length: 8.12261 Bohr) occupying 0.710442 of unit cell:	Completed after 0 iterations at t[s]:  15513.71
	FillingsUpdate:  mu: -0.160200000  nElectrons: 232.200673  magneticMoment: [ Abs: 0.00977  Tot: -0.00734 ]
	SubspaceRotationAdjust: set factor to 0.776
ElecMinimize: Iter:  34  G: -368.085932125035356  |grad|_K:  6.566e-08  alpha:  1.820e-01  linmin: -1.437e-04  t[s]:  15565.31
	Linear fluid (dielectric constant: 78.4, screening length: 8.12261 Bohr) occupying 0.710439 of unit cell:	Completed after 1 iterations at t[s]:  15610.22
	Linear fluid (dielectric constant: 78.4, screening length: 8.12261 Bohr) occupying 0.710440 of unit cell:	Completed after 0 iterations at t[s]:  15646.56
	FillingsUpdate:  mu: -0.160200000  nElectrons: 232.200778  magneticMoment: [ Abs: 0.00844  Tot: -0.00631 ]
	SubspaceRotationAdjust: set factor to 1.25
ElecMinimize: Iter:  35  G: -368.085932271827801  |grad|_K:  4.467e-08  alpha:  1.532e-01  linmin: -1.512e-04  t[s]:  15698.16
	Linear fluid (dielectric constant: 78.4, screening length: 8.12261 Bohr) occupying 0.710439 of unit cell:	Completed after 2 iterations at t[s]:  15742.64
	Linear fluid (dielectric constant: 78.4, screening length: 8.12261 Bohr) occupying 0.710439 of unit cell:	Completed after 0 iterations at t[s]:  15778.84
	FillingsUpdate:  mu: -0.160200000  nElectrons: 232.201033  magneticMoment: [ Abs: 0.00791  Tot: -0.00589 ]
	SubspaceRotationAdjust: set factor to 1.1
ElecMinimize: Iter:  36  G: -368.085932309689611  |grad|_K:  5.413e-08  alpha:  9.967e-02  linmin:  5.372e-05  t[s]:  15830.40
	Linear fluid (dielectric constant: 78.4, screening length: 8.12261 Bohr) occupying 0.710438 of unit cell:	Completed after 0 iterations at t[s]:  15873.01
	Linear fluid (dielectric constant: 78.4, screening length: 8.12261 Bohr) occupying 0.710438 of unit cell:	Completed after 0 iterations at t[s]:  15909.35
	FillingsUpdate:  mu: -0.160200000  nElectrons: 232.200855  magneticMoment: [ Abs: 0.00613  Tot: -0.00445 ]
	SubspaceRotationAdjust: set factor to 1.04
ElecMinimize: Iter:  37  G: -368.085932420449922  |grad|_K:  4.972e-08  alpha:  1.781e-01  linmin: -3.649e-06  t[s]:  15961.04
	Linear fluid (dielectric constant: 78.4, screening length: 8.12261 Bohr) occupying 0.710436 of unit cell:	Completed after 1 iterations at t[s]:  16005.00
	Linear fluid (dielectric constant: 78.4, screening length: 8.12261 Bohr) occupying 0.710437 of unit cell:	Completed after 1 iterations at t[s]:  16042.64
	FillingsUpdate:  mu: -0.160200000  nElectrons: 232.200572  magneticMoment: [ Abs: 0.00557  Tot: -0.00400 ]
	SubspaceRotationAdjust: set factor to 0.683
ElecMinimize: Iter:  38  G: -368.085932434469385  |grad|_K:  4.779e-08  alpha:  5.689e-02  linmin:  7.495e-04  t[s]:  16094.52
	Linear fluid (dielectric constant: 78.4, screening length: 8.12261 Bohr) occupying 0.710437 of unit cell:	Completed after 0 iterations at t[s]:  16136.97
	Linear fluid (dielectric constant: 78.4, screening length: 8.12261 Bohr) occupying 0.710437 of unit cell:	Completed after 0 iterations at t[s]:  16173.40
	FillingsUpdate:  mu: -0.160200000  nElectrons: 232.200555  magneticMoment: [ Abs: 0.00450  Tot: -0.00314 ]
	SubspaceRotationAdjust: set factor to 0.782
ElecMinimize: Iter:  39  G: -368.085932460726610  |grad|_K:  4.187e-08  alpha:  1.071e-01  linmin: -3.407e-06  t[s]:  16225.62
ElecMinimize: Converged (|Delta G|<1.000000e-07 for 2 iters).
Setting wave functions to eigenvectors of Hamiltonian
Converging empty states (this may take a while): |deigs|: 1.201e-03
Single-point solvation energy estimate, DeltaG = -0.028641721164433

Computing DFT-D3 correction:
# coordination-number C 3.301 3.320 3.333 3.332 3.313 3.291 3.325 3.632 3.330 3.314 3.303 3.325 3.307 3.302 3.325 3.582 3.269 3.301 3.319 3.334 3.326 3.301 3.302 3.325 3.334 3.319 3.301 3.268 3.630 3.325 3.302 3.306 3.333 3.304 3.314 3.330 3.591 3.325 3.291 3.313 3.332 3.334 3.321 3.300 3.016
# coordination-number N 3.184 3.176 3.177 3.179
# coordination-number Ti 7.526
# coordination-number O 1.985 1.990 2.134
# coordination-number H 1.107 0.991 0.991
# diagonal-C6 C 24.28 24.08 23.94 23.96 24.16 24.37 24.02 19.92 23.98 24.14 24.25 24.03 24.21 24.26 24.03 20.49 24.56 24.28 24.09 23.93 24.02 24.27 24.27 24.02 23.93 24.09 24.27 24.57 19.94 24.02 24.26 24.22 23.94 24.24 24.14 23.98 20.38 24.02 24.36 24.16 23.96 23.94 24.07 24.28 25.64
# diagonal-C6 N 15.60 15.60 15.60 15.60
# diagonal-C6 Ti 321.59
# diagonal-C6 O 10.41 10.41 10.38
# diagonal-C6 H 3.06 3.09 3.09
EvdW_6 =   -0.044280
EvdW_8 =   -0.033614
Completed 1 of 22 configurations.

Computing DFT-D3 correction:
# coordination-number C 3.301 3.320 3.333 3.332 3.313 3.291 3.325 3.632 3.330 3.314 3.303 3.325 3.307 3.302 3.325 3.582 3.269 3.301 3.319 3.334 3.326 3.301 3.302 3.325 3.334 3.319 3.301 3.268 3.630 3.325 3.302 3.306 3.333 3.304 3.314 3.330 3.591 3.325 3.291 3.313 3.332 3.334 3.321 3.300 3.016
# coordination-number N 3.184 3.176 3.177 3.179
# coordination-number Ti 7.526
# coordination-number O 1.985 1.990 2.134
# coordination-number H 1.107 0.991 0.991
# diagonal-C6 C 24.28 24.08 23.94 23.96 24.16 24.37 24.02 19.92 23.98 24.14 24.25 24.03 24.21 24.26 24.03 20.49 24.56 24.28 24.09 23.93 24.02 24.27 24.27 24.02 23.93 24.09 24.27 24.57 19.94 24.02 24.26 24.22 23.94 24.24 24.14 23.98 20.38 24.02 24.36 24.16 23.96 23.94 24.07 24.28 25.64
# diagonal-C6 N 15.60 15.60 15.60 15.60
# diagonal-C6 Ti 321.59
# diagonal-C6 O 10.41 10.41 10.38
# diagonal-C6 H 3.06 3.09 3.09
EvdW_6 =   -0.044279
EvdW_8 =   -0.033613
Shifting auxilliary hamiltonian by 0.000038 to set nElectrons=232.200555

-------- Electronic minimization -----------
	Linear fluid (dielectric constant: 78.4, screening length: 8.12261 Bohr) occupying 0.710441 of unit cell:	Completed after 6 iterations at t[s]:  17530.39
	FillingsUpdate:  mu: -0.160200000  nElectrons: 232.200555  magneticMoment: [ Abs: 0.00352  Tot: -0.00257 ]
ElecMinimize: Iter:   0  G: -368.085879320233516  |grad|_K:  5.019e-07  alpha:  1.000e+00
[...]
disp Ti   0.000000000000000   0.000000000000000   0.000000000000000
disp O   0.001081258817377  -0.001021088153033  -0.001331971783782
disp O   0.001232270761630  -0.000875628018649   0.000112715909321
disp O  -0.000845384574762   0.000615506875309   0.000541368224103
disp H  -0.001536231874890   0.002248804565953  -0.003112297816765
disp H   0.008294160531454   0.000661317422408  -0.004026717001309
disp H   0.000586606461844  -0.007900842138521  -0.003681890686084

Real mode 15:
Frequency: 0.007138 Eh [ 1567 cm^-1 ]
Degeneracy: 1 of 1
IR intensity: 0.3127 e^2/amu [ 304.8 km/mol ]
Displacements:
disp C   0.000000000000000   0.000000000000000   0.000000000000000
disp C   0.000000000000000   0.000000000000000   0.000000000000000
disp C   0.000000000000000   0.000000000000000   0.000000000000000
disp C   0.000000000000000   0.000000000000000   0.000000000000000
disp C   0.000000000000000   0.000000000000000   0.000000000000000
disp C   0.000000000000000   0.000000000000000   0.000000000000000
disp C   0.000000000000000   0.000000000000000   0.000000000000000
disp C   0.000000000000000   0.000000000000000   0.000000000000000
disp C   0.000000000000000   0.000000000000000   0.000000000000000
disp C   0.000000000000000   0.000000000000000   0.000000000000000
disp C   0.000000000000000   0.000000000000000   0.000000000000000
disp C   0.000000000000000   0.000000000000000   0.000000000000000
disp C   0.000000000000000   0.000000000000000   0.000000000000000
disp C   0.000000000000000   0.000000000000000   0.000000000000000
disp C   0.000000000000000   0.000000000000000   0.000000000000000
disp C   0.000000000000000   0.000000000000000   0.000000000000000
disp C   0.000000000000000   0.000000000000000   0.000000000000000
disp C   0.000000000000000   0.000000000000000   0.000000000000000
disp C   0.000000000000000   0.000000000000000   0.000000000000000
disp C   0.000000000000000   0.000000000000000   0.000000000000000
disp C   0.000000000000000   0.000000000000000   0.000000000000000
disp C   0.000000000000000   0.000000000000000   0.000000000000000
disp C   0.000000000000000   0.000000000000000   0.000000000000000
disp C   0.000000000000000   0.000000000000000   0.000000000000000
disp C   0.000000000000000   0.000000000000000   0.000000000000000
disp C   0.000000000000000   0.000000000000000   0.000000000000000
disp C   0.000000000000000   0.000000000000000   0.000000000000000
disp C   0.000000000000000   0.000000000000000   0.000000000000000
disp C   0.000000000000000   0.000000000000000   0.000000000000000
disp C   0.000000000000000   0.000000000000000   0.000000000000000
disp C   0.000000000000000   0.000000000000000   0.000000000000000
disp C   0.000000000000000   0.000000000000000   0.000000000000000
disp C   0.000000000000000   0.000000000000000   0.000000000000000
disp C   0.000000000000000   0.000000000000000   0.000000000000000
disp C   0.000000000000000   0.000000000000000   0.000000000000000
disp C   0.000000000000000   0.000000000000000   0.000000000000000
disp C   0.000000000000000   0.000000000000000   0.000000000000000
disp C   0.000000000000000   0.000000000000000   0.000000000000000
disp C   0.000000000000000   0.000000000000000   0.000000000000000
disp C   0.000000000000000   0.000000000000000   0.000000000000000
disp C   0.000000000000000   0.000000000000000   0.000000000000000
disp C   0.000000000000000   0.000000000000000   0.000000000000000
disp C   0.000000000000000   0.000000000000000   0.000000000000000
disp C   0.000000000000000   0.000000000000000   0.000000000000000
disp C  -0.001939157122502   0.001627460111086   0.001300368777480
disp N   0.000000000000000   0.000000000000000   0.000000000000000
disp N   0.000000000000000   0.000000000000000   0.000000000000000
disp N   0.000000000000000   0.000000000000000   0.000000000000000
disp N   0.000000000000000   0.000000000000000   0.000000000000000
disp Ti   0.000000000000000   0.000000000000000   0.000000000000000
disp O   0.000675600667212  -0.000568559790167  -0.000241925345673
disp O   0.000894302512049  -0.000635839637639   0.000084507761650
disp O   0.000804914924707  -0.000487179292397  -0.000444000638968
disp H   0.000604847544963  -0.001084957318515  -0.010828659146894
disp H  -0.010597508914452  -0.000358886527117   0.004939400371465
disp H  -0.001613730339751   0.010901458715515   0.004576257471342

Real mode 16:
Frequency: 0.009572 Eh [ 2101 cm^-1 ]
Degeneracy: 1 of 1
IR intensity: 0.4217 e^2/amu [ 411.1 km/mol ]
Displacements:
disp C   0.000000000000000   0.000000000000000   0.000000000000000
disp C   0.000000000000000   0.000000000000000   0.000000000000000
disp C   0.000000000000000   0.000000000000000   0.000000000000000
disp C   0.000000000000000   0.000000000000000   0.000000000000000
disp C   0.000000000000000   0.000000000000000   0.000000000000000
disp C   0.000000000000000   0.000000000000000   0.000000000000000
disp C   0.000000000000000   0.000000000000000   0.000000000000000
disp C   0.000000000000000   0.000000000000000   0.000000000000000
disp C   0.000000000000000   0.000000000000000   0.000000000000000
disp C   0.000000000000000   0.000000000000000   0.000000000000000
disp C   0.000000000000000   0.000000000000000   0.000000000000000
disp C   0.000000000000000   0.000000000000000   0.000000000000000
disp C   0.000000000000000   0.000000000000000   0.000000000000000
disp C   0.000000000000000   0.000000000000000   0.000000000000000
disp C   0.000000000000000   0.000000000000000   0.000000000000000
disp C   0.000000000000000   0.000000000000000   0.000000000000000
disp C   0.000000000000000   0.000000000000000   0.000000000000000
disp C   0.000000000000000   0.000000000000000   0.000000000000000
disp C   0.000000000000000   0.000000000000000   0.000000000000000
disp C   0.000000000000000   0.000000000000000   0.000000000000000
disp C   0.000000000000000   0.000000000000000   0.000000000000000
disp C   0.000000000000000   0.000000000000000   0.000000000000000
disp C   0.000000000000000   0.000000000000000   0.000000000000000
disp C   0.000000000000000   0.000000000000000   0.000000000000000
disp C   0.000000000000000   0.000000000000000   0.000000000000000
disp C   0.000000000000000   0.000000000000000   0.000000000000000
disp C   0.000000000000000   0.000000000000000   0.000000000000000
disp C   0.000000000000000   0.000000000000000   0.000000000000000
disp C   0.000000000000000   0.000000000000000   0.000000000000000
disp C   0.000000000000000   0.000000000000000   0.000000000000000
disp C   0.000000000000000   0.000000000000000   0.000000000000000
disp C   0.000000000000000   0.000000000000000   0.000000000000000
disp C   0.000000000000000   0.000000000000000   0.000000000000000
disp C   0.000000000000000   0.000000000000000   0.000000000000000
disp C   0.000000000000000   0.000000000000000   0.000000000000000
disp C   0.000000000000000   0.000000000000000   0.000000000000000
disp C   0.000000000000000   0.000000000000000   0.000000000000000
disp C   0.000000000000000   0.000000000000000   0.000000000000000
disp C   0.000000000000000   0.000000000000000   0.000000000000000
disp C   0.000000000000000   0.000000000000000   0.000000000000000
disp C   0.000000000000000   0.000000000000000   0.000000000000000
disp C   0.000000000000000   0.000000000000000   0.000000000000000
disp C   0.000000000000000   0.000000000000000   0.000000000000000
disp C   0.000000000000000   0.000000000000000   0.000000000000000
disp C   0.000582840607477  -0.000480208375512  -0.000770463713420
disp N   0.000000000000000   0.000000000000000   0.000000000000000
disp N   0.000000000000000   0.000000000000000   0.000000000000000
disp N   0.000000000000000   0.000000000000000   0.000000000000000
disp N   0.000000000000000   0.000000000000000   0.000000000000000
disp Ti   0.000000000000000   0.000000000000000   0.000000000000000
disp O   0.001234137723806  -0.000884776241560   0.000655184712929
disp O  -0.000296788099711   0.000243632598730   0.000225357124472
disp O  -0.000123073505446   0.000132749905884  -0.000098659412501
disp H  -0.017485627677534   0.013014107080198  -0.002054077554908
disp H  -0.000860976498454   0.000714804443492   0.000572680728380
disp H  -0.000924809966466   0.000956131061896   0.000684040392742

Real mode 17:
Frequency: 0.016890 Eh [ 3707 cm^-1 ]
Degeneracy: 1 of 1
IR intensity: 0.2710 e^2/amu [ 264.2 km/mol ]
Displacements:
disp C   0.000000000000000   0.000000000000000   0.000000000000000
disp C   0.000000000000000   0.000000000000000   0.000000000000000
disp C   0.000000000000000   0.000000000000000   0.000000000000000
disp C   0.000000000000000   0.000000000000000   0.000000000000000
disp C   0.000000000000000   0.000000000000000   0.000000000000000
disp C   0.000000000000000   0.000000000000000   0.000000000000000
disp C   0.000000000000000   0.000000000000000   0.000000000000000
disp C   0.000000000000000   0.000000000000000   0.000000000000000
disp C   0.000000000000000   0.000000000000000   0.000000000000000
disp C   0.000000000000000   0.000000000000000   0.000000000000000
disp C   0.000000000000000   0.000000000000000   0.000000000000000
disp C   0.000000000000000   0.000000000000000   0.000000000000000
disp C   0.000000000000000   0.000000000000000   0.000000000000000
disp C   0.000000000000000   0.000000000000000   0.000000000000000
disp C   0.000000000000000   0.000000000000000   0.000000000000000
disp C   0.000000000000000   0.000000000000000   0.000000000000000
disp C   0.000000000000000   0.000000000000000   0.000000000000000
disp C   0.000000000000000   0.000000000000000   0.000000000000000
disp C   0.000000000000000   0.000000000000000   0.000000000000000
disp C   0.000000000000000   0.000000000000000   0.000000000000000
disp C   0.000000000000000   0.000000000000000   0.000000000000000
disp C   0.000000000000000   0.000000000000000   0.000000000000000
disp C   0.000000000000000   0.000000000000000   0.000000000000000
disp C   0.000000000000000   0.000000000000000   0.000000000000000
disp C   0.000000000000000   0.000000000000000   0.000000000000000
disp C   0.000000000000000   0.000000000000000   0.000000000000000
disp C   0.000000000000000   0.000000000000000   0.000000000000000
disp C   0.000000000000000   0.000000000000000   0.000000000000000
disp C   0.000000000000000   0.000000000000000   0.000000000000000
disp C   0.000000000000000   0.000000000000000   0.000000000000000
disp C   0.000000000000000   0.000000000000000   0.000000000000000
disp C   0.000000000000000   0.000000000000000   0.000000000000000
disp C   0.000000000000000   0.000000000000000   0.000000000000000
disp C   0.000000000000000   0.000000000000000   0.000000000000000
disp C   0.000000000000000   0.000000000000000   0.000000000000000
disp C   0.000000000000000   0.000000000000000   0.000000000000000
disp C   0.000000000000000   0.000000000000000   0.000000000000000
disp C   0.000000000000000   0.000000000000000   0.000000000000000
disp C   0.000000000000000   0.000000000000000   0.000000000000000
disp C   0.000000000000000   0.000000000000000   0.000000000000000
disp C   0.000000000000000   0.000000000000000   0.000000000000000
disp C   0.000000000000000   0.000000000000000   0.000000000000000
disp C   0.000000000000000   0.000000000000000   0.000000000000000
disp C   0.000000000000000   0.000000000000000   0.000000000000000
disp C  -0.000028526546441   0.000005560308310  -0.000033558631755
disp N   0.000000000000000   0.000000000000000   0.000000000000000
disp N   0.000000000000000   0.000000000000000   0.000000000000000
disp N   0.000000000000000   0.000000000000000   0.000000000000000
disp N   0.000000000000000   0.000000000000000   0.000000000000000
disp Ti   0.000000000000000   0.000000000000000   0.000000000000000
disp O  -0.000025214068019   0.000017909037313  -0.000004099740056
disp O  -0.000005105048468  -0.000000015796981  -0.000008651372010
disp O   0.000425840696907  -0.000934692913885  -0.000715329654419
disp H   0.000685222447552  -0.000589324265129  -0.000035204279592
disp H   0.003159677768753   0.018293436314445   0.006503543432203
disp H  -0.009773944688925  -0.004238866969345   0.004254864238400

Real mode 18:
Frequency: 0.017186 Eh [ 3772 cm^-1 ]
Degeneracy: 1 of 1
IR intensity: 0.4969 e^2/amu [ 484.5 km/mol ]
Displacements:
disp C   0.000000000000000   0.000000000000000   0.000000000000000
disp C   0.000000000000000   0.000000000000000   0.000000000000000
disp C   0.000000000000000   0.000000000000000   0.000000000000000
disp C   0.000000000000000   0.000000000000000   0.000000000000000
disp C   0.000000000000000   0.000000000000000   0.000000000000000
disp C   0.000000000000000   0.000000000000000   0.000000000000000
disp C   0.000000000000000   0.000000000000000   0.000000000000000
disp C   0.000000000000000   0.000000000000000   0.000000000000000
disp C   0.000000000000000   0.000000000000000   0.000000000000000
disp C   0.000000000000000   0.000000000000000   0.000000000000000
disp C   0.000000000000000   0.000000000000000   0.000000000000000
disp C   0.000000000000000   0.000000000000000   0.000000000000000
disp C   0.000000000000000   0.000000000000000   0.000000000000000
disp C   0.000000000000000   0.000000000000000   0.000000000000000
disp C   0.000000000000000   0.000000000000000   0.000000000000000
disp C   0.000000000000000   0.000000000000000   0.000000000000000
disp C   0.000000000000000   0.000000000000000   0.000000000000000
disp C   0.000000000000000   0.000000000000000   0.000000000000000
disp C   0.000000000000000   0.000000000000000   0.000000000000000
disp C   0.000000000000000   0.000000000000000   0.000000000000000
disp C   0.000000000000000   0.000000000000000   0.000000000000000
disp C   0.000000000000000   0.000000000000000   0.000000000000000
disp C   0.000000000000000   0.000000000000000   0.000000000000000
disp C   0.000000000000000   0.000000000000000   0.000000000000000
disp C   0.000000000000000   0.000000000000000   0.000000000000000
disp C   0.000000000000000   0.000000000000000   0.000000000000000
disp C   0.000000000000000   0.000000000000000   0.000000000000000
disp C   0.000000000000000   0.000000000000000   0.000000000000000
disp C   0.000000000000000   0.000000000000000   0.000000000000000
disp C   0.000000000000000   0.000000000000000   0.000000000000000
disp C   0.000000000000000   0.000000000000000   0.000000000000000
disp C   0.000000000000000   0.000000000000000   0.000000000000000
disp C   0.000000000000000   0.000000000000000   0.000000000000000
disp C   0.000000000000000   0.000000000000000   0.000000000000000
disp C   0.000000000000000   0.000000000000000   0.000000000000000
disp C   0.000000000000000   0.000000000000000   0.000000000000000
disp C   0.000000000000000   0.000000000000000   0.000000000000000
disp C   0.000000000000000   0.000000000000000   0.000000000000000
disp C   0.000000000000000   0.000000000000000   0.000000000000000
disp C   0.000000000000000   0.000000000000000   0.000000000000000
disp C   0.000000000000000   0.000000000000000   0.000000000000000
disp C   0.000000000000000   0.000000000000000   0.000000000000000
disp C   0.000000000000000   0.000000000000000   0.000000000000000
disp C   0.000000000000000   0.000000000000000   0.000000000000000
disp C   0.000027372372110  -0.000012669365666   0.000018299066131
disp N   0.000000000000000   0.000000000000000   0.000000000000000
disp N   0.000000000000000   0.000000000000000   0.000000000000000
disp N   0.000000000000000   0.000000000000000   0.000000000000000
disp N   0.000000000000000   0.000000000000000   0.000000000000000
disp Ti   0.000000000000000   0.000000000000000   0.000000000000000
disp O  -0.000020175228178   0.000016997639941   0.000004220504619
disp O  -0.000002171782318  -0.000000035109599   0.000006586723288
disp O   0.001099766300713   0.001075546329919  -0.000228912266656
disp H   0.000215722353610  -0.000203899076395   0.000021467115354
disp H  -0.001440766661146  -0.010266166282700  -0.003988125875566
disp H  -0.016726551553477  -0.006322514841295   0.007913500111351

Vibrational free energy components at T = 298 K:
	ZPE:          0.045848
	Evib:         0.049967
	TSvib:        0.007516
	Avib:         0.042450


Dumping 'jdft.n_up' ... done
Dumping 'jdft.n_dn' ... done
Dumping 'jdft.tau_up' ... done
Dumping 'jdft.tau_dn' ... done
Dumping 'jdft.eigenvals' ... done
Dumping 'jdft.eigStats' ... 
	eMin: -2.298209 at state 13 ( [ +0.333333 +0.333333 +0.000000 ] spin -1 )
	HOMO: -0.168510 at state 17 ( [ -0.333333 -0.333333 +0.000000 ] spin -1 )
	mu  : -0.160200
	LUMO: -0.160015 at state 13 ( [ +0.333333 +0.333333 +0.000000 ] spin -1 )
	eMax: +0.016708 at state 17 ( [ -0.333333 -0.333333 +0.000000 ] spin -1 )
	HOMO-LUMO gap: +0.008495
	Optical gap  : +0.008497 at state 17 ( [ -0.333333 -0.333333 +0.000000 ] spin -1 )
Dumping 'jdft.kPts' ... done
Dumping 'jdft.dosUp' ... done.
Dumping 'jdft.dosDn' ... done.
End date and time: Thu Nov 10 01:19:05 2022  (Duration: 0-12:10:15.87)
Done!

PROFILER:             augmentDensityGrid     0.641027 +/-     0.763690 s, 2995 calls,   1919.877022 s total
PROFILER:         augmentDensityGridGrad     0.474702 +/-     0.568662 s, 1685 calls,    799.873624 s total
PROFILER:        augmentDensitySpherical     0.000374 +/-     0.000497 s, 2995 calls,      1.120880 s total
PROFILER:    augmentDensitySphericalGrad     0.000368 +/-     0.000512 s, 2325 calls,      0.856640 s total
PROFILER:                 augmentOverlap     1.404887 +/-     2.050029 s, 6705 calls,   9419.770256 s total
PROFILER:        ColumnBundle::randomize     0.005066 +/-     0.000000 s,    1 calls,      0.005066 s total
PROFILER:                     diagouterI    15.410857 +/-     2.607685 s,  602 calls,   9277.335963 s total
PROFILER:              EdensityAndVscloc     6.886113 +/-     4.414246 s,  600 calls,   4131.667793 s total
PROFILER:                     EnlAndGrad     0.001195 +/-     0.001823 s, 3500 calls,      4.182974 s total
PROFILER:            ExCorrCommunication     0.057820 +/-     0.064352 s, 3844 calls,    222.261664 s total
PROFILER:               ExCorrFunctional     0.024959 +/-     0.005258 s,  667 calls,     16.647851 s total
PROFILER:                    ExCorrTotal     0.585590 +/-     0.132976 s,  667 calls,    390.588469 s total
PROFILER:                   Idag_DiagV_I    25.592412 +/-    11.140064 s,  443 calls,  11337.438670 s total
PROFILER:                    initWeights     1.957099 +/-     0.000000 s,    1 calls,      1.957099 s total
PROFILER:                    inv(matrix)     0.002077 +/-     0.000978 s,  546 calls,      1.133915 s total
PROFILER:            matrix::diagonalize     0.007959 +/-     0.005182 s, 1018 calls,      8.102036 s total
PROFILER:                    matrix::set     0.000002 +/-     0.000003 s, 66162 calls,      0.113041 s total
PROFILER:            orthoMatrix(matrix)     0.001512 +/-     0.000842 s,  653 calls,      0.987249 s total
PROFILER:     RadialFunctionR::transform     0.003668 +/-     0.017534 s,  151 calls,      0.553918 s total
PROFILER:                    reduceKmesh     0.000000 +/-     0.000000 s,    1 calls,      0.000000 s total
PROFILER:   VanDerWaalsD3::energyAndGrad     0.036129 +/-     0.006318 s,   45 calls,      1.625819 s total
PROFILER:               WavefunctionDrag    27.255261 +/-     1.559825 s,   22 calls,    599.615733 s total
PROFILER:                            Y*M     0.633930 +/-     0.809786 s, 11644 calls,   7381.485484 s total
PROFILER:                          Y1^Y2     0.652800 +/-     0.835402 s, 8666 calls,   5657.167513 s total

MEMUSAGE:                   ColumnBundle     1.365987 GB
MEMUSAGE:        complexScalarFieldTilde     0.049438 GB
MEMUSAGE:                    IndexArrays     0.023178 GB
MEMUSAGE:                         matrix     0.020862 GB
MEMUSAGE:                           misc     0.051230 GB
MEMUSAGE:                    ScalarField     0.395508 GB
MEMUSAGE:               ScalarFieldTilde     0.262436 GB
MEMUSAGE:                          Total     1.683400 GB
