
*************** JDFTx 1.7.0 (git hash 5f12716a) ***************

Start date and time: Sun Jul 31 03:22:22 2022
Executable /home/nisi6161/jdftx_alpine/build/jdftx with command-line: -i in
Running on hosts (process indices):  c3cpu-a2-u11-4.rc.int.colorado.edu (0-17)
Divided in process groups (process indices):  0 (0)  1 (1)  2 (2)  3 (3)  4 (4)  5 (5)  6 (6)  7 (7)  8 (8)  9 (9)  10 (10)  11 (11)  12 (12)  13 (13)  14 (14)  15 (15)  16 (16)  17 (17)
Resource initialization completed at t[s]:      0.06
Run totals: 18 processes, 64 threads, 0 GPUs


Input parsed successfully to the following command list (including defaults):

basis kpoint-dependent
converge-empty-states yes
coords-type Cartesian
core-overlap-check none
coulomb-interaction Periodic
davidson-band-ratio 1.1
density-of-states Etol 1.000000e-06 Esigma 1.000000e-03 \
		Complete \
	Total \
	OrthoOrbital C 1   s \
	OrthoOrbital C 1   p \
	OrthoOrbital C 1   px \
	OrthoOrbital C 1   py \
	OrthoOrbital C 1   pz \
	OrthoOrbital C 2   s \
	OrthoOrbital C 2   p \
	OrthoOrbital C 2   px \
	OrthoOrbital C 2   py \
	OrthoOrbital C 2   pz \
	OrthoOrbital C 3   s \
	OrthoOrbital C 3   p \
	OrthoOrbital C 3   px \
	OrthoOrbital C 3   py \
	OrthoOrbital C 3   pz \
	OrthoOrbital C 4   s \
	OrthoOrbital C 4   p \
	OrthoOrbital C 4   px \
	OrthoOrbital C 4   py \
	OrthoOrbital C 4   pz \
	OrthoOrbital C 5   s \
	OrthoOrbital C 5   p \
	OrthoOrbital C 5   px \
	OrthoOrbital C 5   py \
	OrthoOrbital C 5   pz \
	OrthoOrbital C 6   s \
	OrthoOrbital C 6   p \
	OrthoOrbital C 6   px \
	OrthoOrbital C 6   py \
	OrthoOrbital C 6   pz \
	OrthoOrbital C 7   s \
	OrthoOrbital C 7   p \
	OrthoOrbital C 7   px \
	OrthoOrbital C 7   py \
	OrthoOrbital C 7   pz \
	OrthoOrbital C 8   s \
	OrthoOrbital C 8   p \
	OrthoOrbital C 8   px \
	OrthoOrbital C 8   py \
	OrthoOrbital C 8   pz \
	OrthoOrbital C 9   s \
	OrthoOrbital C 9   p \
	OrthoOrbital C 9   px \
	OrthoOrbital C 9   py \
	OrthoOrbital C 9   pz \
	OrthoOrbital C 10   s \
	OrthoOrbital C 10   p \
	OrthoOrbital C 10   px \
	OrthoOrbital C 10   py \
	OrthoOrbital C 10   pz \
	OrthoOrbital C 11   s \
	OrthoOrbital C 11   p \
	OrthoOrbital C 11   px \
	OrthoOrbital C 11   py \
	OrthoOrbital C 11   pz \
	OrthoOrbital C 12   s \
	OrthoOrbital C 12   p \
	OrthoOrbital C 12   px \
	OrthoOrbital C 12   py \
	OrthoOrbital C 12   pz \
	OrthoOrbital C 13   s \
	OrthoOrbital C 13   p \
	OrthoOrbital C 13   px \
	OrthoOrbital C 13   py \
	OrthoOrbital C 13   pz \
	OrthoOrbital C 14   s \
	OrthoOrbital C 14   p \
	OrthoOrbital C 14   px \
	OrthoOrbital C 14   py \
	OrthoOrbital C 14   pz \
	OrthoOrbital C 15   s \
	OrthoOrbital C 15   p \
	OrthoOrbital C 15   px \
	OrthoOrbital C 15   py \
	OrthoOrbital C 15   pz \
	OrthoOrbital C 16   s \
	OrthoOrbital C 16   p \
	OrthoOrbital C 16   px \
	OrthoOrbital C 16   py \
	OrthoOrbital C 16   pz \
	OrthoOrbital C 17   s \
	OrthoOrbital C 17   p \
	OrthoOrbital C 17   px \
	OrthoOrbital C 17   py \
	OrthoOrbital C 17   pz \
	OrthoOrbital C 18   s \
	OrthoOrbital C 18   p \
	OrthoOrbital C 18   px \
	OrthoOrbital C 18   py \
	OrthoOrbital C 18   pz \
	OrthoOrbital C 19   s \
	OrthoOrbital C 19   p \
	OrthoOrbital C 19   px \
	OrthoOrbital C 19   py \
	OrthoOrbital C 19   pz \
	OrthoOrbital C 20   s \
	OrthoOrbital C 20   p \
	OrthoOrbital C 20   px \
	OrthoOrbital C 20   py \
	OrthoOrbital C 20   pz \
	OrthoOrbital C 21   s \
	OrthoOrbital C 21   p \
	OrthoOrbital C 21   px \
	OrthoOrbital C 21   py \
	OrthoOrbital C 21   pz \
	OrthoOrbital C 22   s \
	OrthoOrbital C 22   p \
	OrthoOrbital C 22   px \
	OrthoOrbital C 22   py \
	OrthoOrbital C 22   pz \
	OrthoOrbital C 23   s \
	OrthoOrbital C 23   p \
	OrthoOrbital C 23   px \
	OrthoOrbital C 23   py \
	OrthoOrbital C 23   pz \
	OrthoOrbital C 24   s \
	OrthoOrbital C 24   p \
	OrthoOrbital C 24   px \
	OrthoOrbital C 24   py \
	OrthoOrbital C 24   pz \
	OrthoOrbital C 25   s \
	OrthoOrbital C 25   p \
	OrthoOrbital C 25   px \
	OrthoOrbital C 25   py \
	OrthoOrbital C 25   pz \
	OrthoOrbital C 26   s \
	OrthoOrbital C 26   p \
	OrthoOrbital C 26   px \
	OrthoOrbital C 26   py \
	OrthoOrbital C 26   pz \
	OrthoOrbital C 27   s \
	OrthoOrbital C 27   p \
	OrthoOrbital C 27   px \
	OrthoOrbital C 27   py \
	OrthoOrbital C 27   pz \
	OrthoOrbital C 28   s \
	OrthoOrbital C 28   p \
	OrthoOrbital C 28   px \
	OrthoOrbital C 28   py \
	OrthoOrbital C 28   pz \
	OrthoOrbital C 29   s \
	OrthoOrbital C 29   p \
	OrthoOrbital C 29   px \
	OrthoOrbital C 29   py \
	OrthoOrbital C 29   pz \
	OrthoOrbital C 30   s \
	OrthoOrbital C 30   p \
	OrthoOrbital C 30   px \
	OrthoOrbital C 30   py \
	OrthoOrbital C 30   pz \
	OrthoOrbital C 31   s \
	OrthoOrbital C 31   p \
	OrthoOrbital C 31   px \
	OrthoOrbital C 31   py \
	OrthoOrbital C 31   pz \
	OrthoOrbital C 32   s \
	OrthoOrbital C 32   p \
	OrthoOrbital C 32   px \
	OrthoOrbital C 32   py \
	OrthoOrbital C 32   pz \
	OrthoOrbital C 33   s \
	OrthoOrbital C 33   p \
	OrthoOrbital C 33   px \
	OrthoOrbital C 33   py \
	OrthoOrbital C 33   pz \
	OrthoOrbital C 34   s \
	OrthoOrbital C 34   p \
	OrthoOrbital C 34   px \
	OrthoOrbital C 34   py \
	OrthoOrbital C 34   pz \
	OrthoOrbital C 35   s \
	OrthoOrbital C 35   p \
	OrthoOrbital C 35   px \
	OrthoOrbital C 35   py \
	OrthoOrbital C 35   pz \
	OrthoOrbital C 36   s \
	OrthoOrbital C 36   p \
	OrthoOrbital C 36   px \
	OrthoOrbital C 36   py \
	OrthoOrbital C 36   pz \
	OrthoOrbital C 37   s \
	OrthoOrbital C 37   p \
	OrthoOrbital C 37   px \
	OrthoOrbital C 37   py \
	OrthoOrbital C 37   pz \
	OrthoOrbital C 38   s \
	OrthoOrbital C 38   p \
	OrthoOrbital C 38   px \
	OrthoOrbital C 38   py \
	OrthoOrbital C 38   pz \
	OrthoOrbital C 39   s \
	OrthoOrbital C 39   p \
	OrthoOrbital C 39   px \
	OrthoOrbital C 39   py \
	OrthoOrbital C 39   pz \
	OrthoOrbital C 40   s \
	OrthoOrbital C 40   p \
	OrthoOrbital C 40   px \
	OrthoOrbital C 40   py \
	OrthoOrbital C 40   pz \
	OrthoOrbital C 41   s \
	OrthoOrbital C 41   p \
	OrthoOrbital C 41   px \
	OrthoOrbital C 41   py \
	OrthoOrbital C 41   pz \
	OrthoOrbital C 42   s \
	OrthoOrbital C 42   p \
	OrthoOrbital C 42   px \
	OrthoOrbital C 42   py \
	OrthoOrbital C 42   pz \
	OrthoOrbital C 43   s \
	OrthoOrbital C 43   p \
	OrthoOrbital C 43   px \
	OrthoOrbital C 43   py \
	OrthoOrbital C 43   pz \
	OrthoOrbital C 44   s \
	OrthoOrbital C 44   p \
	OrthoOrbital C 44   px \
	OrthoOrbital C 44   py \
	OrthoOrbital C 44   pz \
	OrthoOrbital C 45   s \
	OrthoOrbital C 45   p \
	OrthoOrbital C 45   px \
	OrthoOrbital C 45   py \
	OrthoOrbital C 45   pz \
	OrthoOrbital N 1   s \
	OrthoOrbital N 1   p \
	OrthoOrbital N 1   px \
	OrthoOrbital N 1   py \
	OrthoOrbital N 1   pz \
	OrthoOrbital N 2   s \
	OrthoOrbital N 2   p \
	OrthoOrbital N 2   px \
	OrthoOrbital N 2   py \
	OrthoOrbital N 2   pz \
	OrthoOrbital N 3   s \
	OrthoOrbital N 3   p \
	OrthoOrbital N 3   px \
	OrthoOrbital N 3   py \
	OrthoOrbital N 3   pz \
	OrthoOrbital N 4   s \
	OrthoOrbital N 4   p \
	OrthoOrbital N 4   px \
	OrthoOrbital N 4   py \
	OrthoOrbital N 4   pz \
	OrthoOrbital Ti 1   s \
	OrthoOrbital Ti 1   p \
	OrthoOrbital Ti 1   px \
	OrthoOrbital Ti 1   py \
	OrthoOrbital Ti 1   pz \
	OrthoOrbital Ti 1   d \
	OrthoOrbital Ti 1   dxy \
	OrthoOrbital Ti 1   dyz \
	OrthoOrbital Ti 1   dz2 \
	OrthoOrbital Ti 1   dxz \
	OrthoOrbital Ti 1   dx2-y2 \
	OrthoOrbital O 1   s \
	OrthoOrbital O 1   p \
	OrthoOrbital O 1   px \
	OrthoOrbital O 1   py \
	OrthoOrbital O 1   pz \
	OrthoOrbital O 2   s \
	OrthoOrbital O 2   p \
	OrthoOrbital O 2   px \
	OrthoOrbital O 2   py \
	OrthoOrbital O 2   pz \
	OrthoOrbital O 3   s \
	OrthoOrbital O 3   p \
	OrthoOrbital O 3   px \
	OrthoOrbital O 3   py \
	OrthoOrbital O 3   pz \
	OrthoOrbital H 1   s \
	OrthoOrbital H 2   s
dump End ElecDensity KEdensity BandEigs EigStats RhoAtom DOS Kpoints
dump Ionic State IonicPositions Lattice EigStats Ecomponents
dump 
dump 
dump 
dump 
dump 
dump 
dump 
dump 
dump-name jdft.$VAR
elec-cutoff 20
elec-eigen-algo Davidson
elec-ex-corr gga-PBE
elec-initial-magnetization 0.000000 no
elec-n-bands 140
elec-smearing Fermi 0.001
electronic-minimize  \
	dirUpdateScheme      FletcherReeves \
	linminMethod         DirUpdateRecommended \
	nIterations          100 \
	history              15 \
	knormThreshold       0 \
	energyDiffThreshold  1e-07 \
	nEnergyDiff          2 \
	alphaTstart          1 \
	alphaTmin            1e-10 \
	updateTestStepSize   yes \
	alphaTreduceFactor   0.1 \
	alphaTincreaseFactor 3 \
	nAlphaAdjustMax      3 \
	wolfeEnergy          0.0001 \
	wolfeGradient        0.9 \
	fdTest               no
exchange-regularization WignerSeitzTruncated
fluid LinearPCM 298.000000 1.013250
fluid-anion F- 0.5 MeanFieldLJ \
	epsBulk 1 \
	pMol 0 \
	epsInf 1 \
	Pvap 0 \
	sigmaBulk 0 \
	Rvdw 2.24877 \
	Res 0 \
	tauNuc 343133
fluid-cation Na+ 0.5 MeanFieldLJ \
	epsBulk 1 \
	pMol 0 \
	epsInf 1 \
	Pvap 0 \
	sigmaBulk 0 \
	Rvdw 2.19208 \
	Res 0 \
	tauNuc 343133
fluid-ex-corr lda-TF lda-PZ
fluid-gummel-loop 10 1.000000e-05
fluid-minimize  \
	dirUpdateScheme      PolakRibiere \
	linminMethod         DirUpdateRecommended \
	nIterations          400 \
	history              15 \
	knormThreshold       1e-11 \
	energyDiffThreshold  0 \
	nEnergyDiff          2 \
	alphaTstart          1 \
	alphaTmin            1e-10 \
	updateTestStepSize   yes \
	alphaTreduceFactor   0.1 \
	alphaTincreaseFactor 3 \
	nAlphaAdjustMax      6 \
	wolfeEnergy          0.0001 \
	wolfeGradient        0.9 \
	fdTest               no
fluid-solvent H2O 55.338 ScalarEOS \
	epsBulk 78.4 \
	pMol 0.92466 \
	epsInf 1.77 \
	Pvap 1.06736e-10 \
	sigmaBulk 4.62e-05 \
	Rvdw 2.61727 \
	Res 1.42 \
	tauNuc 343133 \
	poleEl 15 7 1
forces-output-coords Positions
initial-state jdft.$VAR
ion C   0.016260707300136   0.052226249235495  43.372052179946650 1
ion C  21.063708618626784   4.022090587604448  43.260702045855851 1
ion C  18.720523129323073   8.025854270489507  43.108380506487123 1
ion C  -7.028276947973499  12.030672052366898  43.117875711796330 1
ion C  -9.358779573553251  16.034654496159646  43.305272800290162 1
ion C   4.706129058593135   0.162967440235445   0.155445356638386 1
ion C   2.304577160163431   4.165509148896524   0.198191228495744 1
ion C  -0.093105657302019   8.009944745626864   0.039949352309037 1
ion C  -2.414411441765672  12.018603046309201  43.156953734213303 1
ion C  -4.705768155497256  16.045013235414952  43.232417004165619 1
ion C   9.392802699980763   0.074561411494766  43.325385576201846 1
ion C   7.106910389377933   4.193093726329895   0.273309951300480 1
ion C  -0.013464250537758  15.958691272988073   0.013979373562937 1
ion C   2.366327373161054  19.911046323580319  43.295519651010224 1
ion C  11.782955726012762   4.012797523240168  43.292996098627427 1
ion C   9.503034157937918   8.003693862867658   0.193979809841429 1
ion C   4.690228450274843  15.805521799851826   0.216859908341331 1
ion C   7.016922609455129  19.909602195309205  43.331948479422927 1
ion C  16.423800650188355   3.996772126681033  43.183340754405954 1
ion C  14.113484750298076   8.020843824329674  43.143000305719127 1
ion C  11.794358129609597  12.016877408730467  43.297342766262609 1
ion C   9.383326427154923  15.940986307763080   0.175483812071399 1
ion C   0.005542539754166   2.737794130227758   0.096284861210911 1
ion C  -2.402546848026644   6.677722912471063  43.200610324037186 1
ion C  -4.722743985451766  10.682342237557643  43.096553663211694 1
ion C  -7.029542427109415  14.703869495576523  43.204865909046546 1
ion C  -9.356201927962255  18.721441685645200  43.376960543805787 1
ion C   4.705799095070733   2.887187001832292   0.259528517252149 1
ion C  -0.098232234950364  10.699993481433394   0.014611015332814 1
ion C  -2.387502610970204  14.689590149399034  43.202951965999084 1
ion C  -4.701125325324524  18.732474411505191  43.332248457802713 1
ion C   9.406112413686090   2.755900039706003   0.124056375948100 1
ion C   2.283488562510215  14.528165822590024   0.134325486014820 1
ion C   0.003125106498564  18.639258112788021  43.288535215079456 1
ion C  14.099160814439259   2.655906441829247  43.243749069361826 1
ion C  11.807280965800690   6.684427743814615  43.263772041346513 1
ion C   9.499636883419084  10.685090034908203   0.226322028180734 1
ion C   7.080116021064951  14.499123829577041   0.306033921486854 1
ion C   4.694767489691985  18.527759592920820   0.101923341798842 1
ion C  18.749439951094498   2.659606889877599  43.245730789524224 1
ion C  16.419060091477299   6.670841371948661  43.111920454821167 1
ion C  14.107780136915368  10.690756611856729  43.154217501055307 1
ion C  11.764483223178601  14.689985035321614  43.350057040285733 1
ion C   9.374746803162131  18.627001815275129  43.373937175930983 1
ion C   4.756281903358044   8.307467627137726   5.598613979232247 1
ion N   2.172145878600054  11.946605842331902   0.206344323218942 1
ion N   7.208548664281249  11.895700566034744   0.490122750508833 1
ion N   2.192323817673317   6.765283042067684   0.248894382556112 1
ion N   7.224663920784788   6.780720113293554   0.420681377686933 1
ion Ti   4.561113195322981   9.324945904934452   1.833153223073569 1
ion O   3.279260072994235  10.298121148774049   5.330880646112909 1
ion O   5.215084667171673   7.267790190796783   7.693083294057097 1
ion O   6.860390146504396   2.605706883715558   6.509699855303118 1
ion H   6.311692840621444   4.387282266252922   6.935083035087125 1
ion H   6.324117143891006   2.416532511094076   4.742197027664840 1
ion-species /projects/musgravc/apps/jdftx-1.6.0/build/pseudopotentials/GBRV_v1.5/$ID_pbe_v1.uspp
ion-species /projects/musgravc/apps/jdftx-1.6.0/build/pseudopotentials/GBRV_v1.5/$ID_pbe_v1.2.uspp
ion-species /projects/musgravc/apps/jdftx-1.6.0/build/pseudopotentials/GBRV_v1.5/$ID_pbe_v1.4.uspp
ion-species /projects/musgravc/apps/jdftx-1.6.0/build/pseudopotentials/GBRV_v1.5/$ID_pbe_v1.5.uspp
ion-width Ecut
ionic-minimize  \
	dirUpdateScheme      L-BFGS \
	linminMethod         DirUpdateRecommended \
	nIterations          100 \
	history              15 \
	knormThreshold       0.0001 \
	energyDiffThreshold  1e-06 \
	nEnergyDiff          2 \
	alphaTstart          1 \
	alphaTmin            1e-10 \
	updateTestStepSize   yes \
	alphaTreduceFactor   0.1 \
	alphaTincreaseFactor 1 \
	nAlphaAdjustMax      1 \
	wolfeEnergy          0.0001 \
	wolfeGradient        0.9 \
	fdTest               no
kpoint   0.000000000000   0.000000000000   0.000000000000  1.00000000000000
kpoint-folding 3 3 1 
latt-move-scale 0 0 0
latt-scale 1 1 1 
lattice  \
	  23.436261999999999  -11.733459000000000    0.000000000000000  \
	   0.017994000000000   19.941849000000001    0.000000000000000  \
	   0.000000000000000    0.000000000000000   43.256312999999999 
lattice-minimize  \
	dirUpdateScheme      L-BFGS \
	linminMethod         DirUpdateRecommended \
	nIterations          0 \
	history              15 \
	knormThreshold       0 \
	energyDiffThreshold  1e-06 \
	nEnergyDiff          2 \
	alphaTstart          1 \
	alphaTmin            1e-10 \
	updateTestStepSize   yes \
	alphaTreduceFactor   0.1 \
	alphaTincreaseFactor 3 \
	nAlphaAdjustMax      3 \
	wolfeEnergy          0.0001 \
	wolfeGradient        0.9 \
	fdTest               no
lcao-params 30 1e-06 0.001
pcm-variant CANDLE
spintype z-spin
subspace-rotation-factor 1 yes
symmetries none
symmetry-threshold 0.0001
target-mu -0.1272 no

van-der-waals D3


Applied RMS atom displacement 0 bohrs to make symmetries exact.

---------- Initializing the Grid ----------
R = 
[      23.4363     -11.7335            0  ]
[     0.017994      19.9418            0  ]
[            0            0      43.2563  ]
unit cell volume = 20225.5
G =
[   0.267976   0.157673         -0  ]
[ -0.000241801   0.314933          0  ]
[          0         -0   0.145255  ]
Minimum fftbox size, Smin = [  96  96  176  ]
Chosen fftbox size, S = [  96  96  180  ]

---------- Exchange Correlation functional ----------
Initalized PBE GGA exchange.
Initalized PBE GGA correlation.

---------- Setting up pseudopotentials ----------
Width of ionic core gaussian charges (only for fluid interactions / plotting) set to 0.397384

Reading pseudopotential file '/projects/musgravc/apps/jdftx-1.6.0/build/pseudopotentials/GBRV_v1.5/c_pbe_v1.2.uspp':
  Title: C.  Created by USPP 7.3.6 on 3-2-2014
  Reference state energy: -5.406344.  4 valence electrons in orbitals:
    |200>  occupation: 2  eigenvalue: -0.504890
    |210>  occupation: 2  eigenvalue: -0.194356
  lMax: 1  lLocal: 2  QijEcut: 5
  4 projectors sampled on a log grid with 503 points:
    l: 0  eig: -0.504890  rCut: 1.3
    l: 0  eig: 0.000000  rCut: 1.3
    l: 1  eig: -0.194357  rCut: 1.3
    l: 1  eig: 0.000000  rCut: 1.3
  Partial core density with radius 1.1
  Transforming core density to a uniform radial grid of dG=0.02 with 1464 points.
  Transforming local potential to a uniform radial grid of dG=0.02 with 1464 points.
  Transforming nonlocal projectors to a uniform radial grid of dG=0.02 with 432 points.
  Transforming density augmentations to a uniform radial grid of dG=0.02 with 1464 points.
  Transforming atomic orbitals to a uniform radial grid of dG=0.02 with 432 points.
  Core radius for overlap checks: 1.30 bohrs.

Reading pseudopotential file '/projects/musgravc/apps/jdftx-1.6.0/build/pseudopotentials/GBRV_v1.5/n_pbe_v1.2.uspp':
  Title: N.  Created by USPP 7.3.6 on 3-2-2014
  Reference state energy: -9.763716.  5 valence electrons in orbitals:
    |200>  occupation: 2  eigenvalue: -0.681964
    |210>  occupation: 3  eigenvalue: -0.260726
  lMax: 1  lLocal: 2  QijEcut: 6
  4 projectors sampled on a log grid with 491 points:
    l: 0  eig: -0.681964  rCut: 1.15
    l: 0  eig: 0.000000  rCut: 1.15
    l: 1  eig: -0.260729  rCut: 1.2
    l: 1  eig: 0.500000  rCut: 1.2
  Partial core density with radius 0.8
  Transforming core density to a uniform radial grid of dG=0.02 with 1464 points.
  Transforming local potential to a uniform radial grid of dG=0.02 with 1464 points.
  Transforming nonlocal projectors to a uniform radial grid of dG=0.02 with 432 points.
  Transforming density augmentations to a uniform radial grid of dG=0.02 with 1464 points.
  Transforming atomic orbitals to a uniform radial grid of dG=0.02 with 432 points.
  Core radius for overlap checks: 1.20 bohrs.

Reading pseudopotential file '/projects/musgravc/apps/jdftx-1.6.0/build/pseudopotentials/GBRV_v1.5/ti_pbe_v1.4.uspp':
  Title: Ti.  Created by USPP 7.3.6 on 31-3-15
  Reference state energy: -59.020943.  12 valence electrons in orbitals:
    |300>  occupation: 2  eigenvalue: -2.777623
    |310>  occupation: 6  eigenvalue: -1.894596
    |400>  occupation: 2  eigenvalue: -0.438610
    |320>  occupation: 1  eigenvalue: -0.583119
  lMax: 2  lLocal: 3  QijEcut: 6
  6 projectors sampled on a log grid with 597 points:
    l: 0  eig: -2.777624  rCut: 1.8
    l: 0  eig: -0.438611  rCut: 1.8
    l: 1  eig: -1.894596  rCut: 1.8
    l: 1  eig: 0.500000  rCut: 1.8
    l: 2  eig: -0.583118  rCut: 1.8
    l: 2  eig: 0.150000  rCut: 1.8
  Partial core density with radius 0.8
  Transforming core density to a uniform radial grid of dG=0.02 with 1464 points.
  Transforming local potential to a uniform radial grid of dG=0.02 with 1464 points.
  Transforming nonlocal projectors to a uniform radial grid of dG=0.02 with 432 points.
  Transforming density augmentations to a uniform radial grid of dG=0.02 with 1464 points.
  Transforming atomic orbitals to a uniform radial grid of dG=0.02 with 432 points.
  Core radius for overlap checks: 1.80 bohrs.

Reading pseudopotential file '/projects/musgravc/apps/jdftx-1.6.0/build/pseudopotentials/GBRV_v1.5/o_pbe_v1.2.uspp':
  Title: O.  Created by USPP 7.3.6 on 3-2-2014
  Reference state energy: -15.894388.  6 valence electrons in orbitals:
    |200>  occupation: 2  eigenvalue: -0.878823
    |210>  occupation: 4  eigenvalue: -0.332131
  lMax: 2  lLocal: 2  QijEcut: 6
  5 projectors sampled on a log grid with 511 points:
    l: 0  eig: -0.878823  rCut: 1.25
    l: 0  eig: 0.000000  rCut: 1.25
    l: 1  eig: -0.332132  rCut: 1.25
    l: 1  eig: 0.000000  rCut: 1.25
    l: 2  eig: 1.000000  rCut: 1.25
  Partial core density with radius 0.7
  Transforming core density to a uniform radial grid of dG=0.02 with 1464 points.
  Transforming local potential to a uniform radial grid of dG=0.02 with 1464 points.
  Transforming nonlocal projectors to a uniform radial grid of dG=0.02 with 432 points.
  Transforming density augmentations to a uniform radial grid of dG=0.02 with 1464 points.
  Transforming atomic orbitals to a uniform radial grid of dG=0.02 with 432 points.
  Core radius for overlap checks: 1.25 bohrs.

Reading pseudopotential file '/projects/musgravc/apps/jdftx-1.6.0/build/pseudopotentials/GBRV_v1.5/h_pbe_v1.4.uspp':
  Title: H.  Created by USPP 7.3.6 on 2-4-15
  Reference state energy: -0.458849.  1 valence electrons in orbitals:
    |100>  occupation: 1  eigenvalue: -0.238595
  lMax: 0  lLocal: 1  QijEcut: 6
  2 projectors sampled on a log grid with 395 points:
    l: 0  eig: -0.238595  rCut: 1.2
    l: 0  eig: 1.000000  rCut: 1.2
  Transforming local potential to a uniform radial grid of dG=0.02 with 1464 points.
  Transforming nonlocal projectors to a uniform radial grid of dG=0.02 with 432 points.
  Transforming density augmentations to a uniform radial grid of dG=0.02 with 1464 points.
  Transforming atomic orbitals to a uniform radial grid of dG=0.02 with 432 points.
  Core radius for overlap checks: 1.20 bohrs.

Initialized 5 species with 55 total atoms.

Folded 1 k-points by 3x3x1 to 9 k-points.

---------- Setting up k-points, bands, fillings ----------
No reducable k-points. 
Computing the number of bands and number of electrons
Reading initial fillings from file jdft.fillings.
nElectrons: 233.129150   nBands: 140   nStates: 18

----- Setting up reduced wavefunction bases (one per k-point) -----
average nbasis = 86412.556 , ideal nbasis = 86404.907

----- Initializing Supercell corresponding to k-point mesh -----
Lattice vector linear combinations in supercell:
[   3   0   0  ]
[   0   3   0  ]
[   0   0   1  ]
Supercell lattice vectors:
[  70.3088  -35.2004  0  ]
[  0.053982  59.8255  0  ]
[  0  0  43.2563  ]

Initializing DFT-D3 calculator:
	Parameters set for gga-PBE functional
	s6:  1.000  s_r6:  1.217
	s8:  0.722  s_r8:  1.000
	Per-atom parameters loaded for:
	 C:  sqrtQ[a0]:  3.105  Rcov[a0]:  1.417  CN: [ 0.00 0.99 2.00 3.00 3.98 ]
	 N:  sqrtQ[a0]:  2.712  Rcov[a0]:  1.342  CN: [ 0.00 0.99 2.01 2.99 ]
	Ti:  sqrtQ[a0]:  6.288  Rcov[a0]:  2.305  CN: [ 0.00 1.83 3.87 ]
	 O:  sqrtQ[a0]:  2.594  Rcov[a0]:  1.191  CN: [ 0.00 0.99 1.99 ]
	 H:  sqrtQ[a0]:  2.007  Rcov[a0]:  0.605  CN: [ 0.91 0.00 ]

Initializing DFT-D2 calculator for fluid / solvation:
	 C:  C6:   30.35 Eh-a0^6  R0: 2.744 a0
	 N:  C6:   21.33 Eh-a0^6  R0: 2.640 a0
	Ti:  C6:  187.33 Eh-a0^6  R0: 2.952 a0
	 O:  C6:   12.14 Eh-a0^6  R0: 2.536 a0
	 H:  C6:    2.43 Eh-a0^6  R0: 1.892 a0

---------- Setting up ewald sum ----------
Optimum gaussian width for ewald sums = 5.573775 bohr.
Real space sum over 567 unit cells with max indices [  4  4  3  ]
Reciprocal space sum over 7803 terms with max indices [  8  8  13  ]

Computing DFT-D3 correction:
# coordination-number C 3.299 3.320 3.333 3.331 3.312 3.288 3.330 3.641 3.328 3.312 3.301 3.322 3.304 3.301 3.324 3.529 3.264 3.298 3.319 3.335 3.328 3.300 3.301 3.325 3.333 3.319 3.300 3.268 3.626 3.323 3.300 3.303 3.325 3.301 3.313 3.330 3.527 3.313 3.287 3.310 3.331 3.335 3.322 3.298 2.998
# coordination-number N 3.180 3.168 3.180 3.173
# coordination-number Ti 7.386
# coordination-number O 1.987 1.055 1.981
# coordination-number H 1.006 0.995
# diagonal-C6 C 24.29 24.09 23.95 23.96 24.16 24.39 23.97 19.83 23.99 24.16 24.28 24.06 24.24 24.28 24.04 21.22 24.60 24.30 24.09 23.92 24.00 24.28 24.28 24.03 23.94 24.09 24.28 24.57 19.98 24.04 24.29 24.25 24.02 24.27 24.16 23.97 21.24 24.15 24.40 24.18 23.96 23.92 24.06 24.30 25.68
# diagonal-C6 N 15.60 15.60 15.60 15.60
# diagonal-C6 Ti 321.59
# diagonal-C6 O 10.41 12.77 10.42
# diagonal-C6 H 3.09 3.09
EvdW_6 =   -0.044423
EvdW_8 =   -0.034751

---------- Allocating electronic variables ----------
Initializing wave functions:  reading from 'jdft.wfns'
----- createFluidSolver() ----- (Fluid-side solver setup)
   Initializing fluid molecule 'H2O'
     Initializing site 'O'
       Electron density: proportional to exp(-r/0.36935)*erfc((r-0.51523)/0.36823) with norm 6.826
       Charge density: gaussian nuclear width 0.478731 with net site charge 0.826
       Polarizability: cuspless exponential with width 0.32 and norm 3.73
       Hard sphere radius: 2.57003 bohrs
       Positions in reference frame:
         [ +0.000000 +0.000000 +0.000000 ]
     Initializing site 'H'
       Electron density: proportional to exp(-r/0.34641)*erfc((r-0)/0.390882) with norm 0.587
       Charge density: gaussian nuclear width 0.377945 with net site charge -0.413
       Polarizability: cuspless exponential with width 0.39 and norm 3.3
       Positions in reference frame:
         [ +0.000000 -1.441945 +1.122523 ]
         [ +0.000000 +1.441945 +1.122523 ]
     Net charge: 0   dipole magnitude: 0.927204
     Initializing spherical shell mfKernel with radius 2.61727 Bohr
     deltaS corrections:
       site 'O': -7.54299
       site 'H': -6.83917
   Initializing fluid molecule 'Na+'
     Initializing site 'Na'
       Electron density: proportional to exp(-r/0.19682)*erfc((r-0.71491)/0.41314) with norm 8.1383
       Charge density: gaussian nuclear width 0.365347 with net site charge -1
       Hard sphere radius: 1.86327 bohrs
       Positions in reference frame:
         [ +0.000000 +0.000000 +0.000000 ]
     Net charge: -1   dipole magnitude: 0
     Initializing gaussian mfKernel with width: 1.55004 Bohr
     deltaS corrections:
       site 'Na': -22.3555
   Initializing fluid molecule 'F-'
     Initializing site 'F'
       Electron density: proportional to exp(-r/0.38886)*erfc((r-0)/0.438782) with norm 8
       Charge density: gaussian nuclear width 0.374796 with net site charge 1
       Hard sphere radius: 2.39995 bohrs
       Positions in reference frame:
         [ +0.000000 +0.000000 +0.000000 ]
     Net charge: 1   dipole magnitude: 0
     Initializing gaussian mfKernel with width: 1.59012 Bohr
     deltaS corrections:
       site 'F': -9.04335

Correction to mu due to finite nuclear width = -0.0113812
   Cavity determined by nc: 0.00142 and sigma: 0.707107
   Nonlocal vdW cavity from gaussian model electron density with norm = 8 and sigma = 0.993594 bohr
   Charge asymmetry in cavity with sensitivity pCavity = 36.5 e-bohr/Eh
   Electrostatic cavity expanded by eta = 1.46 bohrs
   Weighted density cavitation model constrained by Nbulk: 0.0049383 bohr^-3, Pvap: 3.14029 kPa, Rvdw: 2.61727 bohr and sigmaBulk: 4.62e-05 Eh/bohr^2 at T: 298 K.
   Weighted density dispersion model using vdW pair potentials with single solvent site with sqrtC6eff: 0.77 SI.
Reading fluid state from 'jdft.fluidState'


---- Citations for features of the code used in this run ----

   Software package:
      R. Sundararaman, K. Letchworth-Weaver, K.A. Schwarz, D. Gunceler, Y. Ozhabes and T.A. Arias, 'JDFTx: software for joint density-functional theory', SoftwareX 6, 278 (2017)

   gga-PBE exchange-correlation functional:
      J.P. Perdew, K. Burke and M. Ernzerhof, Phys. Rev. Lett. 77, 3865 (1996)

   Pseudopotentials:
      KF Garrity, JW Bennett, KM Rabe and D Vanderbilt, Comput. Mater. Sci. 81, 446 (2014)

   DFT-D3 dispersion correction:
      S. Grimme, J. Antony, S. Ehrlich and H. Krieg, J. Chem. Phys. 132, 154104 (2010)

   DFT-D2 dispersion correction:
      S. Grimme, J. Comput. Chem. 27, 1787 (2006)

   Charge-asymmetric nonlocally-determined local-electric (CANDLE) solvation model:
      R. Sundararaman and W.A. Goddard III, J. Chem. Phys. 142, 064107 (2015)

   Total energy minimization with Auxiliary Hamiltonian:
      C. Freysoldt, S. Boeck, and J. Neugebauer, Phys. Rev. B 79, 241103(R) (2009)

   Grand-canonical (fixed-potential) DFT:
      R. Sundararaman, W. A. Goddard III and T. A. Arias, J. Chem. Phys. 146, 114104 (2017)

   Linear-tetrahedron sampling for density of states:
      G. Lehmann and M. Taut, Phys. status solidi (b) 54, 469 (1972)

This list may not be complete. Please suggest additional citations or
report any other bugs at https://github.com/shankar1729/jdftx/issues

Initialization completed successfully at t[s]:     23.16


Computing DFT-D3 correction:
# coordination-number C 3.299 3.320 3.333 3.331 3.312 3.288 3.330 3.641 3.328 3.312 3.301 3.322 3.304 3.301 3.324 3.529 3.264 3.298 3.319 3.335 3.328 3.300 3.301 3.325 3.333 3.319 3.300 3.268 3.626 3.323 3.300 3.303 3.325 3.301 3.313 3.330 3.527 3.313 3.287 3.310 3.331 3.335 3.322 3.298 2.998
# coordination-number N 3.180 3.168 3.180 3.173
# coordination-number Ti 7.386
# coordination-number O 1.987 1.055 1.981
# coordination-number H 1.006 0.995
# diagonal-C6 C 24.29 24.09 23.95 23.96 24.16 24.39 23.97 19.83 23.99 24.16 24.28 24.06 24.24 24.28 24.04 21.22 24.60 24.30 24.09 23.92 24.00 24.28 24.28 24.03 23.94 24.09 24.28 24.57 19.98 24.04 24.29 24.25 24.02 24.27 24.16 23.97 21.24 24.15 24.40 24.18 23.96 23.92 24.06 24.30 25.68
# diagonal-C6 N 15.60 15.60 15.60 15.60
# diagonal-C6 Ti 321.59
# diagonal-C6 O 10.41 12.77 10.42
# diagonal-C6 H 3.09 3.09
EvdW_6 =   -0.044423
EvdW_8 =   -0.034751
Shifting auxilliary hamiltonian by -0.000009 to set nElectrons=233.129150

-------- Electronic minimization -----------
	Linear fluid (dielectric constant: 78.4, screening length: 8.12261 Bohr) occupying 0.719950 of unit cell:	Completed after 2 iterations at t[s]:     52.89
	FillingsUpdate:  mu: -0.127200000  nElectrons: 233.129150  magneticMoment: [ Abs: 0.66686  Tot: -0.60396 ]
ElecMinimize: Iter:   0  G: -375.316708608070371  |grad|_K:  1.970e-07  alpha:  1.000e+00
	Linear fluid (dielectric constant: 78.4, screening length: 8.12261 Bohr) occupying 0.720375 of unit cell:	Completed after 14 iterations at t[s]:    164.40
	Linear fluid (dielectric constant: 78.4, screening length: 8.12261 Bohr) occupying 0.719964 of unit cell:	Completed after 15 iterations at t[s]:    210.65
	FillingsUpdate:  mu: -0.127200000  nElectrons: 233.130227  magneticMoment: [ Abs: 0.66791  Tot: -0.60503 ]
	SubspaceRotationAdjust: set factor to 0.599
ElecMinimize: Iter:   1  G: -375.316708914344758  |grad|_K:  2.431e-08  alpha:  3.331e-02  linmin: -7.708e-03  t[s]:    260.09
	Linear fluid (dielectric constant: 78.4, screening length: 8.12261 Bohr) occupying 0.719963 of unit cell:	Completed after 0 iterations at t[s]:    302.29
ElecMinimize: 	Wrong curvature in test step, increasing alphaT to 9.994263e-02.
	Linear fluid (dielectric constant: 78.4, screening length: 8.12261 Bohr) occupying 0.719963 of unit cell:	Completed after 0 iterations at t[s]:    327.54
	FillingsUpdate:  mu: -0.127200000  nElectrons: 233.130151  magneticMoment: [ Abs: 0.66793  Tot: -0.60504 ]
	SubspaceRotationAdjust: set factor to 0.392
ElecMinimize: Iter:   2  G: -375.316708923340116  |grad|_K:  1.966e-08  alpha: -2.462e+01  linmin: -1.009e-02  t[s]:    377.22
	Linear fluid (dielectric constant: 78.4, screening length: 8.12261 Bohr) occupying 0.719944 of unit cell:	Completed after 4 iterations at t[s]:    422.75
	Linear fluid (dielectric constant: 78.4, screening length: 8.12261 Bohr) occupying 0.719961 of unit cell:	Completed after 3 iterations at t[s]:    461.07
	FillingsUpdate:  mu: -0.127200000  nElectrons: 233.129834  magneticMoment: [ Abs: 0.66799  Tot: -0.60507 ]
	SubspaceRotationAdjust: set factor to 0.221
ElecMinimize: Iter:   3  G: -375.316708931588778  |grad|_K:  2.618e-08  alpha:  1.050e-01  linmin:  4.660e-03  t[s]:    510.45
ElecMinimize: Converged (|Delta G|<1.000000e-07 for 2 iters).
Setting wave functions to eigenvectors of Hamiltonian
Converging empty states (this may take a while): |deigs|: 7.167e-09

Computing DFT-D3 correction:
# coordination-number C 3.299 3.320 3.333 3.331 3.312 3.288 3.330 3.641 3.328 3.312 3.301 3.322 3.304 3.301 3.324 3.529 3.264 3.298 3.319 3.335 3.328 3.300 3.301 3.325 3.333 3.319 3.300 3.268 3.626 3.323 3.300 3.303 3.325 3.301 3.313 3.330 3.527 3.313 3.287 3.310 3.331 3.335 3.322 3.298 2.998
# coordination-number N 3.180 3.168 3.180 3.173
# coordination-number Ti 7.386
# coordination-number O 1.987 1.055 1.981
# coordination-number H 1.006 0.995
# diagonal-C6 C 24.29 24.09 23.95 23.96 24.16 24.39 23.97 19.83 23.99 24.16 24.28 24.06 24.24 24.28 24.04 21.22 24.60 24.30 24.09 23.92 24.00 24.28 24.28 24.03 23.94 24.09 24.28 24.57 19.98 24.04 24.29 24.25 24.02 24.27 24.16 23.97 21.24 24.15 24.40 24.18 23.96 23.92 24.06 24.30 25.68
# diagonal-C6 N 15.60 15.60 15.60 15.60
# diagonal-C6 Ti 321.59
# diagonal-C6 O 10.41 12.77 10.42
# diagonal-C6 H 3.09 3.09
EvdW_6 =   -0.044423
EvdW_8 =   -0.034751

# Ionic positions in cartesian coordinates:
ion C   0.016260707300136   0.052226249235495  43.372052179946650 1
ion C  21.063708618626784   4.022090587604448  43.260702045855851 1
ion C  18.720523129323073   8.025854270489507  43.108380506487123 1
ion C  -7.028276947973499  12.030672052366898  43.117875711796330 1
ion C  -9.358779573553251  16.034654496159646  43.305272800290162 1
ion C   4.706129058593135   0.162967440235445   0.155445356638386 1
ion C   2.304577160163431   4.165509148896524   0.198191228495744 1
ion C  -0.093105657302019   8.009944745626864   0.039949352309037 1
ion C  -2.414411441765672  12.018603046309201  43.156953734213303 1
ion C  -4.705768155497256  16.045013235414952  43.232417004165619 1
ion C   9.392802699980763   0.074561411494766  43.325385576201846 1
ion C   7.106910389377933   4.193093726329895   0.273309951300480 1
ion C  -0.013464250537758  15.958691272988073   0.013979373562937 1
ion C   2.366327373161054  19.911046323580319  43.295519651010224 1
ion C  11.782955726012762   4.012797523240168  43.292996098627427 1
ion C   9.503034157937918   8.003693862867658   0.193979809841429 1
ion C   4.690228450274843  15.805521799851826   0.216859908341331 1
ion C   7.016922609455129  19.909602195309205  43.331948479422927 1
ion C  16.423800650188355   3.996772126681033  43.183340754405954 1
ion C  14.113484750298076   8.020843824329674  43.143000305719127 1
ion C  11.794358129609597  12.016877408730467  43.297342766262609 1
ion C   9.383326427154923  15.940986307763080   0.175483812071399 1
ion C   0.005542539754166   2.737794130227758   0.096284861210911 1
ion C  -2.402546848026644   6.677722912471063  43.200610324037186 1
ion C  -4.722743985451766  10.682342237557643  43.096553663211694 1
ion C  -7.029542427109415  14.703869495576523  43.204865909046546 1
ion C  -9.356201927962255  18.721441685645200  43.376960543805787 1
ion C   4.705799095070733   2.887187001832292   0.259528517252149 1
ion C  -0.098232234950364  10.699993481433394   0.014611015332814 1
ion C  -2.387502610970204  14.689590149399034  43.202951965999084 1
ion C  -4.701125325324524  18.732474411505191  43.332248457802713 1
ion C   9.406112413686090   2.755900039706003   0.124056375948100 1
ion C   2.283488562510215  14.528165822590024   0.134325486014820 1
ion C   0.003125106498564  18.639258112788021  43.288535215079456 1
ion C  14.099160814439259   2.655906441829247  43.243749069361826 1
ion C  11.807280965800690   6.684427743814615  43.263772041346513 1
ion C   9.499636883419084  10.685090034908203   0.226322028180734 1
ion C   7.080116021064951  14.499123829577041   0.306033921486854 1
ion C   4.694767489691985  18.527759592920820   0.101923341798842 1
ion C  18.749439951094498   2.659606889877599  43.245730789524224 1
ion C  16.419060091477299   6.670841371948661  43.111920454821167 1
ion C  14.107780136915368  10.690756611856729  43.154217501055307 1
ion C  11.764483223178601  14.689985035321614  43.350057040285733 1
ion C   9.374746803162131  18.627001815275129  43.373937175930983 1
ion C   4.756281903358044   8.307467627137726   5.598613979232247 1
ion N   2.172145878600054  11.946605842331902   0.206344323218942 1
ion N   7.208548664281249  11.895700566034744   0.490122750508833 1
ion N   2.192323817673317   6.765283042067684   0.248894382556112 1
ion N   7.224663920784788   6.780720113293554   0.420681377686933 1
ion Ti   4.561113195322981   9.324945904934452   1.833153223073569 1
ion O   3.279260072994235  10.298121148774049   5.330880646112909 1
ion O   5.215084667171673   7.267790190796783   7.693083294057097 1
ion O   6.860390146504396   2.605706883715558   6.509699855303118 1
ion H   6.311692840621444   4.387282266252922   6.935083035087125 1
ion H   6.324117143891006   2.416532511094076   4.742197027664840 1

# Forces in Cartesian coordinates:
force C  -0.000025347760482  -0.000093679018100  -0.000072834985652 1
force C   0.000003483892615   0.000146584873332   0.000086381984080 1
force C   0.000028204999915   0.000136105426980  -0.000203011346913 1
force C   0.000271075399646  -0.000484507207718   0.000480209450021 1
force C   0.000441574532829  -0.000228092287599  -0.000259284735714 1
force C  -0.000120333824163  -0.000100896737659   0.000006110248204 1
force C  -0.000285719693941   0.000058018434294  -0.000269201490154 1
force C  -0.000196552373175   0.000397819448841   0.000174626633340 1
force C  -0.000258456839523   0.000026236350553   0.000202057793620 1
force C   0.000007338447378  -0.000552081036821   0.000095469058304 1
force C  -0.000280463215073  -0.000405321620681  -0.000003190911087 1
force C   0.000351248717694  -0.000235813952365  -0.000560508251515 1
force C  -0.000042809534435   0.000288187458858  -0.000128176446875 1
force C  -0.000041965966444  -0.000287775377920   0.000163809747689 1
force C   0.000073733790245   0.000000458669549   0.000001408952846 1
force C  -0.000260755214228   0.000142477622737  -0.000467889327603 1
force C   0.000174440645290  -0.000129652113395  -0.000003855141502 1
force C  -0.000529805817692   0.000147621507617   0.000352245796312 1
force C  -0.000034596103268  -0.000138441511081   0.000483174587668 1
force C   0.000302232412595  -0.000093856756850  -0.000104187692414 1
force C   0.000448530401743  -0.000298994115382   0.000261255535668 1
force C   0.000274666792581   0.000508111924049  -0.000298231995724 1
force C  -0.000077033123898  -0.000190818782464  -0.000478243205762 1
force C   0.000198039216273  -0.000385088385302   0.000101407015047 1
force C   0.000226205568776  -0.000266599975940  -0.000017153370351 1
force C   0.000082090736249  -0.000091468274212   0.000398409180063 1
force C  -0.000113799055208   0.000465866615999  -0.000235591896228 1
force C   0.000084373754913   0.000562678004980  -0.000606753285327 1
force C   0.000034404875755  -0.000514112780749  -0.000223071756038 1
force C   0.000261105790757  -0.000022101440469   0.000286255179007 1
force C  -0.000527585635053  -0.000220908349715   0.000090840986420 1
force C   0.000314381795760  -0.000622275942259  -0.000832221136876 1
force C  -0.000123912650453   0.000436740518606   0.000186029741411 1
force C   0.000033972280585   0.000007025561650   0.000364587326203 1
force C   0.000146530230019  -0.000127545062837  -0.000005020539994 1
force C  -0.000058827903488   0.000250186545878   0.000035744428389 1
force C  -0.000437589397495  -0.000211335657965  -0.000183836164192 1
force C   0.000230066275622   0.000664729683316  -0.000177362846641 1
force C  -0.000081128307152   0.000000415559144   0.000483429619438 1
force C   0.000360933159944   0.000094247533187  -0.000050855391656 1
force C   0.000365736381797  -0.000241136901883   0.000625316966245 1
force C  -0.000083740115037   0.000139836591609  -0.000173539044239 1
force C  -0.000146963282801   0.000186296089570   0.000431620536115 1
force C  -0.000278813070526   0.000193274297203   0.000057939941629 1
force C  -0.000420251755468   0.000945458536024   0.000412728181897 1
force N  -0.000843575661015   0.000354647351467   0.000537715115597 1
force N  -0.000343851161103  -0.000146312160247   0.000335249892308 1
force N  -0.000024569450386   0.000182252971490   0.000693983926028 1
force N  -0.001105825901795   0.000314135822351   0.000328256151153 1
force Ti   0.001305935056351  -0.000518555663098  -0.000355941189657 1
force O   0.000673417167553  -0.000116312148774  -0.001096891504091 1
force O  -0.000553615640105  -0.000095219854092  -0.000774715678524 1
force O  -0.000984110313978   0.000259867724978  -0.000665799918115 1
force H  -0.000017923261168   0.000593799435512   0.000301571887908 1
force H   0.000841680189041  -0.000375430473300   0.000159068453980 1

# Energy components:
   A_diel =       -0.1126638888727208
   Eewald =     1709.7984671716867524
       EH =     2047.7088705862379356
     Eloc =    -4312.8657367312034694
      Enl =       54.7989465411199248
     EvdW =       -0.0791745536680155
      Exc =     -113.4905127961116165
 Exc_core =        3.3745605746022336
       KE =      205.9098702743007152
  MuShift =       -0.0128588756428304
-------------------------------------
     Etot =     -404.9702316975511280
       TS =        0.0005921821439764
-------------------------------------
        F =     -404.9708238796951036
      muN =      -29.6541149481063258
-------------------------------------
        G =     -375.3167089315887779


Dumping 'jdft.fillings' ... done
Dumping 'jdft.wfns' ... done
Dumping 'jdft.fluidState' ... done
Dumping 'jdft.ionpos' ... done
Dumping 'jdft.lattice' ... done
Dumping 'jdft.eigenvals' ... done
Dumping 'jdft.eigStats' ... 
	eMin: -2.257341 at state 9 ( [ +0.000000 +0.000000 +0.000000 ] spin -1 )
	HOMO: -0.127681 at state 10 ( [ +0.000000 +0.333333 +0.000000 ] spin -1 )
	mu  : -0.127200
	LUMO: -0.125527 at state 1 ( [ +0.000000 +0.333333 +0.000000 ] spin 1 )
	eMax: +0.019900 at state 0 ( [ +0.000000 +0.000000 +0.000000 ] spin 1 )
	HOMO-LUMO gap: +0.002154
	Optical gap  : +0.003159 at state 10 ( [ +0.000000 +0.333333 +0.000000 ] spin -1 )
Dumping 'jdft.Ecomponents' ... done
IonicMinimize: Iter:   0  G: -375.316708931588778  |grad|_K:  3.741e-04  t[s]:    630.96

#--- Lowdin population analysis ---
# oxidation-state C +0.035 +0.040 +0.035 +0.042 +0.032 +0.026 +0.159 +0.113 +0.024 +0.032 +0.029 +0.149 +0.014 +0.035 +0.040 +0.128 -0.010 +0.036 +0.030 +0.033 +0.024 +0.021 +0.015 +0.025 +0.035 +0.030 +0.035 -0.030 +0.119 +0.042 +0.029 +0.014 +0.164 +0.035 +0.033 +0.024 +0.126 +0.159 +0.037 +0.033 +0.043 +0.034 +0.041 +0.034 +0.181
# magnetic-moments C -0.001 -0.006 -0.001 -0.003 -0.003 -0.002 -0.009 -0.008 -0.006 -0.003 -0.001 -0.009 -0.016 -0.008 -0.008 -0.004 +0.003 -0.006 -0.001 -0.005 -0.002 +0.000 -0.014 -0.004 -0.000 -0.001 -0.006 +0.003 -0.002 -0.002 -0.005 +0.000 -0.005 -0.000 -0.003 -0.002 -0.009 -0.008 -0.002 -0.002 -0.002 -0.006 -0.009 -0.001 -0.011
# oxidation-state N -0.329 -0.331 -0.320 -0.315
# magnetic-moments N -0.008 -0.004 -0.004 -0.005
# oxidation-state Ti +1.389
# magnetic-moments Ti -0.369
# oxidation-state O -0.525 -0.530 -0.818
# magnetic-moments O +0.001 -0.008 -0.000
# oxidation-state H +0.389 +0.407
# magnetic-moments H +0.000 -0.000


Computing DFT-D3 correction:
# coordination-number C 3.299 3.320 3.333 3.331 3.312 3.288 3.330 3.640 3.328 3.312 3.301 3.322 3.304 3.301 3.324 3.530 3.264 3.298 3.319 3.335 3.328 3.300 3.301 3.325 3.333 3.319 3.300 3.268 3.625 3.323 3.300 3.303 3.325 3.301 3.313 3.330 3.528 3.313 3.287 3.311 3.331 3.335 3.322 3.298 2.998
# coordination-number N 3.180 3.168 3.180 3.174
# coordination-number Ti 7.386
# coordination-number O 1.988 1.055 1.981
# coordination-number H 1.006 0.996
# diagonal-C6 C 24.29 24.09 23.94 23.96 24.16 24.39 23.98 19.83 23.99 24.16 24.28 24.06 24.24 24.27 24.04 21.21 24.60 24.30 24.09 23.92 24.00 24.29 24.27 24.03 23.94 24.09 24.28 24.57 19.99 24.05 24.29 24.25 24.03 24.27 24.16 23.97 21.23 24.15 24.40 24.18 23.96 23.92 24.07 24.30 25.68
# diagonal-C6 N 15.60 15.60 15.60 15.60
# diagonal-C6 Ti 321.59
# diagonal-C6 O 10.41 12.77 10.42
# diagonal-C6 H 3.09 3.09
EvdW_6 =   -0.044424
EvdW_8 =   -0.034752
Shifting auxilliary hamiltonian by -0.000042 to set nElectrons=233.129834

-------- Electronic minimization -----------
	Linear fluid (dielectric constant: 78.4, screening length: 8.12261 Bohr) occupying 0.719949 of unit cell:	Completed after 4 iterations at t[s]:    685.33
	FillingsUpdate:  mu: -0.127200000  nElectrons: 233.129834  magneticMoment: [ Abs: 0.66571  Tot: -0.60282 ]
ElecMinimize: Iter:   0  G: -375.316721225791696  |grad|_K:  2.918e-07  alpha:  1.000e+00
	Linear fluid (dielectric constant: 78.4, screening length: 8.12261 Bohr) occupying 0.720181 of unit cell:	Completed after 12 iterations at t[s]:    791.45
	Linear fluid (dielectric constant: 78.4, screening length: 8.12261 Bohr) occupying 0.719987 of unit cell:	Completed after 11 iterations at t[s]:    834.52
	FillingsUpdate:  mu: -0.127200000  nElectrons: 233.132739  magneticMoment: [ Abs: 0.66861  Tot: -0.60578 ]
	SubspaceRotationAdjust: set factor to 0.139
ElecMinimize: Iter:   1  G: -375.316724530185297  |grad|_K:  1.316e-07  alpha:  1.676e-01  linmin: -1.310e-03  t[s]:    884.38
	Linear fluid (dielectric constant: 78.4, screening length: 8.12261 Bohr) occupying 0.719981 of unit cell:	Completed after 2 iterations at t[s]:    928.11
ElecMinimize: 	Predicted alpha/alphaT>3.000000, increasing alphaT to 5.029098e-01.
	Linear fluid (dielectric constant: 78.4, screening length: 8.12261 Bohr) occupying 0.719968 of unit cell:	Completed after 3 iterations at t[s]:    966.23
	Linear fluid (dielectric constant: 78.4, screening length: 8.12261 Bohr) occupying 0.719963 of unit cell:	Completed after 0 iterations at t[s]:   1002.01
	FillingsUpdate:  mu: -0.127200000  nElectrons: 233.130211  magneticMoment: [ Abs: 0.66780  Tot: -0.60482 ]
	SubspaceRotationAdjust: set factor to 0.2
ElecMinimize: Iter:   2  G: -375.316727005652808  |grad|_K:  5.900e-08  alpha:  6.244e-01  linmin: -3.539e-03  t[s]:   1051.43
	Linear fluid (dielectric constant: 78.4, screening length: 8.12261 Bohr) occupying 0.719937 of unit cell:	Completed after 4 iterations at t[s]:   1096.65
	Linear fluid (dielectric constant: 78.4, screening length: 8.12261 Bohr) occupying 0.719945 of unit cell:	Completed after 2 iterations at t[s]:   1134.40
	FillingsUpdate:  mu: -0.127200000  nElectrons: 233.128650  magneticMoment: [ Abs: 0.66674  Tot: -0.60372 ]
	SubspaceRotationAdjust: set factor to 0.167
ElecMinimize: Iter:   3  G: -375.316727286668424  |grad|_K:  5.942e-08  alpha:  4.291e-01  linmin: -1.836e-03  t[s]:   1183.94
	Linear fluid (dielectric constant: 78.4, screening length: 8.12261 Bohr) occupying 0.719945 of unit cell:	Completed after 2 iterations at t[s]:   1228.25
	Linear fluid (dielectric constant: 78.4, screening length: 8.12261 Bohr) occupying 0.719945 of unit cell:	Completed after 0 iterations at t[s]:   1263.87
	FillingsUpdate:  mu: -0.127200000  nElectrons: 233.128455  magneticMoment: [ Abs: 0.66681  Tot: -0.60381 ]
	SubspaceRotationAdjust: set factor to 0.156
ElecMinimize: Iter:   4  G: -375.316727607713915  |grad|_K:  3.787e-08  alpha:  3.831e-01  linmin:  3.659e-04  t[s]:   1313.37
	Linear fluid (dielectric constant: 78.4, screening length: 8.12261 Bohr) occupying 0.719943 of unit cell:	Completed after 0 iterations at t[s]:   1355.33
	Linear fluid (dielectric constant: 78.4, screening length: 8.12261 Bohr) occupying 0.719941 of unit cell:	Completed after 2 iterations at t[s]:   1392.76
	FillingsUpdate:  mu: -0.127200000  nElectrons: 233.127954  magneticMoment: [ Abs: 0.66633  Tot: -0.60337 ]
	SubspaceRotationAdjust: set factor to 0.162
ElecMinimize: Iter:   5  G: -375.316727758382740  |grad|_K:  3.385e-08  alpha:  7.457e-01  linmin:  2.607e-03  t[s]:   1443.67
	Linear fluid (dielectric constant: 78.4, screening length: 8.12261 Bohr) occupying 0.719947 of unit cell:	Completed after 2 iterations at t[s]:   1489.30
	Linear fluid (dielectric constant: 78.4, screening length: 8.12261 Bohr) occupying 0.719945 of unit cell:	Completed after 0 iterations at t[s]:   1525.03
	FillingsUpdate:  mu: -0.127200000  nElectrons: 233.128147  magneticMoment: [ Abs: 0.66641  Tot: -0.60348 ]
	SubspaceRotationAdjust: set factor to 0.136
ElecMinimize: Iter:   6  G: -375.316727851033988  |grad|_K:  3.349e-08  alpha:  4.596e-01  linmin:  1.740e-03  t[s]:   1574.84
	Linear fluid (dielectric constant: 78.4, screening length: 8.12261 Bohr) occupying 0.719938 of unit cell:	Completed after 2 iterations at t[s]:   1618.98
	Linear fluid (dielectric constant: 78.4, screening length: 8.12261 Bohr) occupying 0.719941 of unit cell:	Completed after 0 iterations at t[s]:   1655.14
	FillingsUpdate:  mu: -0.127200000  nElectrons: 233.127793  magneticMoment: [ Abs: 0.66599  Tot: -0.60308 ]
	SubspaceRotationAdjust: set factor to 0.0884
ElecMinimize: Iter:   7  G: -375.316727891902474  |grad|_K:  2.375e-08  alpha:  2.734e-01  linmin:  8.378e-04  t[s]:   1704.36
ElecMinimize: Converged (|Delta G|<1.000000e-07 for 2 iters).
Setting wave functions to eigenvectors of Hamiltonian
Converging empty states (this may take a while): |deigs|: 5.401e-09

Computing DFT-D3 correction:
# coordination-number C 3.299 3.320 3.333 3.331 3.312 3.288 3.330 3.640 3.328 3.312 3.301 3.322 3.304 3.301 3.324 3.530 3.264 3.298 3.319 3.335 3.328 3.300 3.301 3.325 3.333 3.319 3.300 3.268 3.625 3.323 3.300 3.303 3.325 3.301 3.313 3.330 3.528 3.313 3.287 3.311 3.331 3.335 3.322 3.298 2.998
# coordination-number N 3.180 3.168 3.180 3.174
# coordination-number Ti 7.386
# coordination-number O 1.988 1.055 1.981
# coordination-number H 1.006 0.996
# diagonal-C6 C 24.29 24.09 23.94 23.96 24.16 24.39 23.98 19.83 23.99 24.16 24.28 24.06 24.24 24.27 24.04 21.21 24.60 24.30 24.09 23.92 24.00 24.29 24.27 24.03 23.94 24.09 24.28 24.57 19.99 24.05 24.29 24.25 24.03 24.27 24.16 23.97 21.23 24.15 24.40 24.18 23.96 23.92 24.07 24.30 25.68
# diagonal-C6 N 15.60 15.60 15.60 15.60
# diagonal-C6 Ti 321.59
# diagonal-C6 O 10.41 12.77 10.42
# diagonal-C6 H 3.09 3.09
EvdW_6 =   -0.044424
EvdW_8 =   -0.034752

# Ionic positions in cartesian coordinates:
ion C   0.016249259894502   0.052126956636106  43.371981353414384 1
ion C  21.063726002874247   4.022231558896491  43.260790436293313 1
ion C  18.720565234677835   8.025984762335199  43.108179503593597 1
ion C  -7.027991972219005  12.030181931577891  43.118357929699734 1
ion C  -9.358324098665577  16.034420790290756  43.305015524007828 1
ion C   4.706022625123819   0.162860929916497   0.155453475339976 1
ion C   2.304305340824338   4.165561553749529   0.197924035458977 1
ion C  -0.093288309320346   8.010336951494414   0.040125987395764 1
ion C  -2.414655998250348  12.018623669078465  43.157157800460311 1
ion C  -4.705746916695032  16.044455540796843  43.232514481677306 1
ion C   9.392536137120539   0.074150476292796  43.325384393744145 1
ion C   7.107275538450475   4.192852298796241   0.272751451502351 1
ion C  -0.013493159717344  15.958973846865643   0.013853205569449 1
ion C   2.366299307549458  19.910752934621105  43.295685469211300 1
ion C  11.783043360157855   4.012792368328427  43.292999516033653 1
ion C   9.502787303078538   8.003830726909106   0.193513928967213 1
ion C   4.690416791274979  15.805386534157144   0.216858061653216 1
ion C   7.016406703992285  19.909744203235530  43.332302733672627 1
ion C  16.423779954439929   3.996628071588662  43.183825937447011 1
ion C  14.113800883065522   8.020744353991535  43.142898126480098 1
ion C  11.794820560366189  12.016572801033796  43.297606030251664 1
ion C   9.383614994302354  15.941488806105841   0.175187588529061 1
ion C   0.005479406985116   2.737597697864005   0.095808626458535 1
ion C  -2.402334908455523   6.677332210504472  43.200713739505616 1
ion C  -4.722503879528142  10.682070024000415  43.096538518294729 1
ion C  -7.029446436018318  14.703772413721023  43.205266326679997 1
ion C  -9.356301826662614  18.721901938679910  43.376726960362944 1
ion C   4.705897369180494   2.887744066255983   0.258923772420208 1
ion C  -0.098183929719762  10.699473755071358   0.014389952030162 1
ion C  -2.387227604824600  14.689562434377276  43.203240229631483 1
ion C  -4.701639010604730  18.732247889574190  43.332341307242515 1
ion C   9.406440695836697   2.755272150182455   0.123226163264611 1
ion C   2.283378550214611  14.528596949527341   0.134513524209618 1
ion C   0.003172979133996  18.639259524768381  43.288901810859045 1
ion C  14.099321245024127   2.655773283185121  43.243746057275217 1
ion C  11.807236038252050   6.684672316779204  43.263809794228287 1
ion C   9.499213194376438  10.684873085668951   0.226140200469929 1
ion C   7.080359987695420  14.499782945679067   0.305858567093599 1
ion C   4.694700261739682  18.527754394898675   0.102408779871667 1
ion C  18.749814784609288   2.659695523829497  43.245681942585954 1
ion C  16.419439728213945   6.670594621465488  43.112547780240803 1
ion C  14.107710297155180  10.690890834867050  43.154045970464452 1
ion C  11.764350160250647  14.690165717829895  43.350490669275239 1
ion C   9.374481890446454  18.627189475991045  43.373997124325996 1
ion C   4.755875551957423   8.308407472092462   5.599028715867530 1
ion N   2.171316203293887  11.946954876102080   0.206884046787926 1
ion N   7.208218713474993  11.895548640293208   0.490460008854528 1
ion N   2.192313148577778   6.765459681457884   0.249590374935527 1
ion N   7.223571995237839   6.781028635534615   0.421011642291473 1
ion Ti   4.562433030734178   9.324421735690064   1.832799290337299 1
ion O   3.279947390516634  10.297999223043986   5.329785763062204 1
ion O   5.214544951886416   7.267689357361402   7.692310586831960 1
ion O   6.859419936545264   2.605961137859246   6.509036063838391 1
ion H   6.311688817715124   4.387870452107145   6.935386615428419 1
ion H   6.324972724434895   2.416151467039487   4.742358104572206 1

# Forces in Cartesian coordinates:
force C  -0.000154800220881   0.000005166303626  -0.000091719553053 1
force C   0.000112920065726  -0.000051208355693   0.000069502224441 1
force C   0.000210131973712  -0.000179537447565  -0.000155704976715 1
force C   0.000145823905891  -0.000247332741535   0.000437429576748 1
force C   0.000131575064339   0.000050418896137  -0.000188855511533 1
force C  -0.000159502048868   0.000188345455131  -0.000024194100035 1
force C  -0.000157505351365   0.000110535937011  -0.000295754793137 1
force C  -0.000087580173410  -0.000038690406988   0.000158803622074 1
force C   0.000012665760791  -0.000071154333328   0.000180959119849 1
force C   0.000026894231555  -0.000269030926441   0.000124221006919 1
force C  -0.000230676813768  -0.000392234751634  -0.000020848469543 1
force C   0.000170252096702  -0.000074089361794  -0.000535181376511 1
force C   0.000011164487401   0.000228210510433  -0.000086128396474 1
force C  -0.000032457094488  -0.000120378098457   0.000167468891567 1
force C   0.000119179451940  -0.000030773407037  -0.000026043420461 1
force C  -0.000383597808279   0.000033476597957  -0.000439152380628 1
force C   0.000144756015516   0.000025961814349   0.000004777644492 1
force C  -0.000248849211387   0.000140913382483   0.000322508914992 1
force C   0.000145059472016  -0.000156321924846   0.000453903624706 1
force C   0.000180678748914  -0.000075258363964  -0.000074302432561 1
force C  -0.000055543753543  -0.000048674870920   0.000283239832637 1
force C   0.000122349550407   0.000361265240975  -0.000238259693990 1
force C  -0.000061756818444  -0.000098595227976  -0.000431415578277 1
force C   0.000047019893559  -0.000018095233836   0.000081075583393 1
force C   0.000103542477783  -0.000127767654888  -0.000002342297712 1
force C   0.000152085749110  -0.000359064161465   0.000358921219978 1
force C  -0.000025378327614   0.000049678441958  -0.000231029625176 1
force C   0.000086428744954   0.000212831067438  -0.000601499877846 1
force C  -0.000267239080684   0.000006266974016  -0.000224929961428 1
force C   0.000139979054887  -0.000077456748108   0.000256804902869 1
force C  -0.000328086351358  -0.000341500576744   0.000072940072378 1
force C   0.000193216867522  -0.000345059580403  -0.000752849827228 1
force C  -0.000157249801406   0.000224277226431   0.000149464138961 1
force C  -0.000096719715509  -0.000001443957162   0.000316889188454 1
force C   0.000057205122044  -0.000130019240461   0.000027125934749 1
force C  -0.000049236175789   0.000107344940347   0.000025030589064 1
force C  -0.000112462473586  -0.000035113244998  -0.000214661023400 1
force C   0.000175943161571   0.000282920658519  -0.000131365929674 1
force C  -0.000138436318959  -0.000056195610892   0.000441656880855 1
force C   0.000070919335572   0.000070456344668  -0.000011905314235 1
force C   0.000190687094187  -0.000113766622521   0.000552719918684 1
force C   0.000168220041860  -0.000090525458168  -0.000147466016364 1
force C   0.000153954691811   0.000007032110067   0.000366341083700 1
force C  -0.000233214593578   0.000257383937019   0.000047819509956 1
force C  -0.000086573394763   0.000615979520723  -0.000069359868896 1
force N  -0.000489513953351   0.000270588904252   0.000600335231101 1
force N  -0.000333215811625   0.000121118993788   0.000272102606621 1
force N   0.000023317778635   0.000232055421670   0.000649937348013 1
force N  -0.000730936117300   0.000111829002761   0.000234094731353 1
force Ti   0.001234514877981  -0.000395713231877  -0.000616069481425 1
force O   0.000430969931993   0.000237699701589  -0.001169271524888 1
force O  -0.000487402964679  -0.000278923155533  -0.000530957708645 1
force O  -0.000848861303396   0.000395453643215   0.000013442392909 1
force H  -0.000029918249517   0.000492853244586   0.000174398899984 1
force H   0.000638805751889  -0.000364317338966  -0.000408345809625 1

# Energy components:
   A_diel =       -0.1124039029875343
   Eewald =     1709.8440859406198342
       EH =     2047.7265398367067064
     Eloc =    -4312.9299548394355952
      Enl =       54.7987690113572796
     EvdW =       -0.0791754442765704
      Exc =     -113.4904526845489841
 Exc_core =        3.3745614042714620
       KE =      205.9108770233717109
  MuShift =       -0.0128356363438148
-------------------------------------
     Etot =     -404.9699892912655059
       TS =        0.0005938188302595
-------------------------------------
        F =     -404.9705831100957880
      muN =      -29.6538552181933213
-------------------------------------
        G =     -375.3167278919024739


Dumping 'jdft.fillings' ... done
Dumping 'jdft.wfns' ... done
Dumping 'jdft.fluidState' ... done
Dumping 'jdft.ionpos' ... done
Dumping 'jdft.lattice' ... done
Dumping 'jdft.eigenvals' ... done
Dumping 'jdft.eigStats' ... 
	eMin: -2.257597 at state 9 ( [ +0.000000 +0.000000 +0.000000 ] spin -1 )
	HOMO: -0.127748 at state 11 ( [ +0.000000 -0.333333 +0.000000 ] spin -1 )
	mu  : -0.127200
	LUMO: -0.125554 at state 1 ( [ +0.000000 +0.333333 +0.000000 ] spin 1 )
	eMax: +0.019900 at state 0 ( [ +0.000000 +0.000000 +0.000000 ] spin 1 )
	HOMO-LUMO gap: +0.002194
	Optical gap  : +0.003151 at state 10 ( [ +0.000000 +0.333333 +0.000000 ] spin -1 )
Dumping 'jdft.Ecomponents' ... done
IonicMinimize: Iter:   1  G: -375.316727891902474  |grad|_K:  2.971e-04  alpha:  1.000e+00  linmin: -8.733e-01  t[s]:   1828.32

#--- Lowdin population analysis ---
# oxidation-state C +0.035 +0.040 +0.035 +0.042 +0.032 +0.026 +0.159 +0.113 +0.024 +0.032 +0.029 +0.149 +0.014 +0.035 +0.040 +0.128 -0.010 +0.036 +0.030 +0.033 +0.024 +0.021 +0.015 +0.025 +0.035 +0.030 +0.035 -0.029 +0.119 +0.042 +0.029 +0.014 +0.164 +0.035 +0.033 +0.024 +0.126 +0.159 +0.037 +0.033 +0.043 +0.034 +0.041 +0.034 +0.181
# magnetic-moments C -0.001 -0.006 -0.001 -0.003 -0.003 -0.002 -0.009 -0.008 -0.006 -0.003 -0.001 -0.009 -0.016 -0.008 -0.008 -0.004 +0.003 -0.006 -0.001 -0.005 -0.002 +0.000 -0.014 -0.004 -0.000 -0.001 -0.006 +0.003 -0.002 -0.002 -0.005 +0.000 -0.005 -0.000 -0.003 -0.002 -0.008 -0.008 -0.002 -0.002 -0.002 -0.005 -0.009 -0.001 -0.011
# oxidation-state N -0.329 -0.331 -0.320 -0.315
# magnetic-moments N -0.008 -0.003 -0.004 -0.005
# oxidation-state Ti +1.384
# magnetic-moments Ti -0.371
# oxidation-state O -0.524 -0.530 -0.819
# magnetic-moments O +0.001 -0.008 -0.000
# oxidation-state H +0.389 +0.408
# magnetic-moments H +0.000 -0.000


Computing DFT-D3 correction:
# coordination-number C 3.300 3.320 3.333 3.332 3.312 3.288 3.330 3.638 3.329 3.313 3.300 3.323 3.305 3.301 3.324 3.533 3.264 3.299 3.319 3.334 3.327 3.299 3.301 3.325 3.333 3.319 3.300 3.268 3.621 3.324 3.299 3.302 3.325 3.302 3.313 3.329 3.531 3.313 3.288 3.311 3.331 3.334 3.321 3.299 2.998
# coordination-number N 3.179 3.168 3.180 3.174
# coordination-number Ti 7.387
# coordination-number O 1.988 1.055 1.982
# coordination-number H 1.006 0.996
# diagonal-C6 C 24.29 24.08 23.94 23.96 24.16 24.40 23.97 19.86 23.99 24.16 24.28 24.05 24.23 24.27 24.04 21.15 24.60 24.29 24.09 23.93 24.01 24.29 24.27 24.02 23.94 24.09 24.28 24.57 20.04 24.04 24.29 24.26 24.03 24.26 24.16 23.99 21.19 24.15 24.39 24.17 23.96 23.93 24.07 24.29 25.68
# diagonal-C6 N 15.60 15.60 15.60 15.60
# diagonal-C6 Ti 321.59
# diagonal-C6 O 10.41 12.77 10.42
# diagonal-C6 H 3.09 3.09
EvdW_6 =   -0.044424
EvdW_8 =   -0.034755
Shifting auxilliary hamiltonian by 0.000039 to set nElectrons=233.127793

-------- Electronic minimization -----------
	Linear fluid (dielectric constant: 78.4, screening length: 8.12261 Bohr) occupying 0.719983 of unit cell:	Completed after 7 iterations at t[s]:   1884.58
	FillingsUpdate:  mu: -0.127200000  nElectrons: 233.127793  magneticMoment: [ Abs: 0.66728  Tot: -0.60437 ]
ElecMinimize: Iter:   0  G: -375.316679432338503  |grad|_K:  6.362e-07  alpha:  1.000e+00
	Linear fluid (dielectric constant: 78.4, screening length: 8.12261 Bohr) occupying 0.719827 of unit cell:	Completed after 11 iterations at t[s]:   1990.22
	Linear fluid (dielectric constant: 78.4, screening length: 8.12261 Bohr) occupying 0.719894 of unit cell:	Completed after 7 iterations at t[s]:   2030.43
	FillingsUpdate:  mu: -0.127200000  nElectrons: 233.120910  magneticMoment: [ Abs: 0.66060  Tot: -0.59755 ]
	SubspaceRotationAdjust: set factor to 0.0689
ElecMinimize: Iter:   1  G: -375.316729563911679  |grad|_K:  4.080e-07  alpha:  5.676e-01  linmin:  1.876e-04  t[s]:   2080.56
	Linear fluid (dielectric constant: 78.4, screening length: 8.12261 Bohr) occupying 0.719949 of unit cell:	Completed after 8 iterations at t[s]:   2128.50
	Linear fluid (dielectric constant: 78.4, screening length: 8.12261 Bohr) occupying 0.719933 of unit cell:	Completed after 3 iterations at t[s]:   2166.84
	FillingsUpdate:  mu: -0.127200000  nElectrons: 233.124035  magneticMoment: [ Abs: 0.66286  Tot: -0.60001 ]
	SubspaceRotationAdjust: set factor to 0.0677
ElecMinimize: Iter:   2  G: -375.316744133624297  |grad|_K:  1.903e-07  alpha:  4.032e-01  linmin:  1.206e-05  t[s]:   2217.71
	Linear fluid (dielectric constant: 78.4, screening length: 8.12261 Bohr) occupying 0.719936 of unit cell:	Completed after 2 iterations at t[s]:   2261.41
	Linear fluid (dielectric constant: 78.4, screening length: 8.12261 Bohr) occupying 0.719940 of unit cell:	Completed after 2 iterations at t[s]:   2299.00
	FillingsUpdate:  mu: -0.127200000  nElectrons: 233.124730  magneticMoment: [ Abs: 0.66279  Tot: -0.60008 ]
	SubspaceRotationAdjust: set factor to 0.0838
ElecMinimize: Iter:   3  G: -375.316750462817765  |grad|_K:  1.307e-07  alpha:  8.054e-01  linmin:  1.861e-04  t[s]:   2348.55
	Linear fluid (dielectric constant: 78.4, screening length: 8.12261 Bohr) occupying 0.719931 of unit cell:	Completed after 2 iterations at t[s]:   2392.35
	Linear fluid (dielectric constant: 78.4, screening length: 8.12261 Bohr) occupying 0.719931 of unit cell:	Completed after 0 iterations at t[s]:   2427.66
	FillingsUpdate:  mu: -0.127200000  nElectrons: 233.124406  magneticMoment: [ Abs: 0.66194  Tot: -0.59929 ]
	SubspaceRotationAdjust: set factor to 0.107
ElecMinimize: Iter:   4  G: -375.316753325950344  |grad|_K:  1.070e-07  alpha:  7.719e-01  linmin:  1.503e-04  t[s]:   2477.21
	Linear fluid (dielectric constant: 78.4, screening length: 8.12261 Bohr) occupying 0.719916 of unit cell:	Completed after 2 iterations at t[s]:   2521.33
	Linear fluid (dielectric constant: 78.4, screening length: 8.12261 Bohr) occupying 0.719916 of unit cell:	Completed after 0 iterations at t[s]:   2556.69
	FillingsUpdate:  mu: -0.127200000  nElectrons: 233.123744  magneticMoment: [ Abs: 0.66066  Tot: -0.59809 ]
	SubspaceRotationAdjust: set factor to 0.131
ElecMinimize: Iter:   5  G: -375.316755239302381  |grad|_K:  1.026e-07  alpha:  7.715e-01  linmin: -1.768e-05  t[s]:   2606.33
	Linear fluid (dielectric constant: 78.4, screening length: 8.12261 Bohr) occupying 0.719921 of unit cell:	Completed after 3 iterations at t[s]:   2650.71
	Linear fluid (dielectric constant: 78.4, screening length: 8.12261 Bohr) occupying 0.719923 of unit cell:	Completed after 0 iterations at t[s]:   2686.33
	FillingsUpdate:  mu: -0.127200000  nElectrons: 233.125115  magneticMoment: [ Abs: 0.66056  Tot: -0.59823 ]
	SubspaceRotationAdjust: set factor to 0.153
ElecMinimize: Iter:   6  G: -375.316757788673385  |grad|_K:  9.547e-08  alpha:  1.086e+00  linmin: -6.071e-04  t[s]:   2735.85
	Linear fluid (dielectric constant: 78.4, screening length: 8.12261 Bohr) occupying 0.719909 of unit cell:	Completed after 2 iterations at t[s]:   2779.87
	Linear fluid (dielectric constant: 78.4, screening length: 8.12261 Bohr) occupying 0.719911 of unit cell:	Completed after 0 iterations at t[s]:   2815.44
	FillingsUpdate:  mu: -0.127200000  nElectrons: 233.124893  magneticMoment: [ Abs: 0.65912  Tot: -0.59696 ]
	SubspaceRotationAdjust: set factor to 0.167
ElecMinimize: Iter:   7  G: -375.316759746819002  |grad|_K:  1.000e-07  alpha:  9.206e-01  linmin:  7.327e-05  t[s]:   2865.11
	Linear fluid (dielectric constant: 78.4, screening length: 8.12261 Bohr) occupying 0.719893 of unit cell:	Completed after 2 iterations at t[s]:   2908.88
	Linear fluid (dielectric constant: 78.4, screening length: 8.12261 Bohr) occupying 0.719900 of unit cell:	Completed after 2 iterations at t[s]:   2946.31
	FillingsUpdate:  mu: -0.127200000  nElectrons: 233.124423  magneticMoment: [ Abs: 0.65788  Tot: -0.59586 ]
	SubspaceRotationAdjust: set factor to 0.177
ElecMinimize: Iter:   8  G: -375.316760924180699  |grad|_K:  6.287e-08  alpha:  5.484e-01  linmin:  6.858e-05  t[s]:   2995.78
	Linear fluid (dielectric constant: 78.4, screening length: 8.12261 Bohr) occupying 0.719898 of unit cell:	Completed after 0 iterations at t[s]:   3038.20
	Linear fluid (dielectric constant: 78.4, screening length: 8.12261 Bohr) occupying 0.719898 of unit cell:	Completed after 0 iterations at t[s]:   3073.63
	FillingsUpdate:  mu: -0.127200000  nElectrons: 233.124127  magneticMoment: [ Abs: 0.65731  Tot: -0.59542 ]
	SubspaceRotationAdjust: set factor to 0.192
ElecMinimize: Iter:   9  G: -375.316761576465524  |grad|_K:  4.202e-08  alpha:  7.576e-01  linmin: -1.890e-04  t[s]:   3123.19
	Linear fluid (dielectric constant: 78.4, screening length: 8.12261 Bohr) occupying 0.719897 of unit cell:	Completed after 1 iterations at t[s]:   3166.44
	Linear fluid (dielectric constant: 78.4, screening length: 8.12261 Bohr) occupying 0.719897 of unit cell:	Completed after 0 iterations at t[s]:   3201.85
	FillingsUpdate:  mu: -0.127200000  nElectrons: 233.123921  magneticMoment: [ Abs: 0.65712  Tot: -0.59531 ]
	SubspaceRotationAdjust: set factor to 0.194
ElecMinimize: Iter:  10  G: -375.316761741169614  |grad|_K:  3.973e-08  alpha:  4.905e-01  linmin: -5.356e-04  t[s]:   3251.34
	Linear fluid (dielectric constant: 78.4, screening length: 8.12261 Bohr) occupying 0.719888 of unit cell:	Completed after 2 iterations at t[s]:   3295.14
	Linear fluid (dielectric constant: 78.4, screening length: 8.12261 Bohr) occupying 0.719891 of unit cell:	Completed after 0 iterations at t[s]:   3330.67
	FillingsUpdate:  mu: -0.127200000  nElectrons: 233.123283  magneticMoment: [ Abs: 0.65653  Tot: -0.59477 ]
	SubspaceRotationAdjust: set factor to 0.15
ElecMinimize: Iter:  11  G: -375.316761863330498  |grad|_K:  4.547e-08  alpha:  3.121e-01  linmin:  2.368e-03  t[s]:   3380.12
	Linear fluid (dielectric constant: 78.4, screening length: 8.12261 Bohr) occupying 0.719894 of unit cell:	Completed after 1 iterations at t[s]:   3423.32
	Linear fluid (dielectric constant: 78.4, screening length: 8.12261 Bohr) occupying 0.719893 of unit cell:	Completed after 0 iterations at t[s]:   3458.68
	FillingsUpdate:  mu: -0.127200000  nElectrons: 233.123272  magneticMoment: [ Abs: 0.65651  Tot: -0.59481 ]
	SubspaceRotationAdjust: set factor to 0.204
ElecMinimize: Iter:  12  G: -375.316761913076618  |grad|_K:  2.431e-08  alpha:  1.858e-01  linmin: -3.577e-04  t[s]:   3508.09
	Linear fluid (dielectric constant: 78.4, screening length: 8.12261 Bohr) occupying 0.719894 of unit cell:	Completed after 0 iterations at t[s]:   3550.18
	Linear fluid (dielectric constant: 78.4, screening length: 8.12261 Bohr) occupying 0.719896 of unit cell:	Completed after 2 iterations at t[s]:   3587.72
	FillingsUpdate:  mu: -0.127200000  nElectrons: 233.123369  magneticMoment: [ Abs: 0.65657  Tot: -0.59495 ]
	SubspaceRotationAdjust: set factor to 0.201
ElecMinimize: Iter:  13  G: -375.316761935652494  |grad|_K:  3.077e-08  alpha:  5.557e-01  linmin:  4.019e-03  t[s]:   3637.09
ElecMinimize: Converged (|Delta G|<1.000000e-07 for 2 iters).
Setting wave functions to eigenvectors of Hamiltonian
Converging empty states (this may take a while): |deigs|: 3.331e-08

Computing DFT-D3 correction:
# coordination-number C 3.300 3.320 3.333 3.332 3.312 3.288 3.330 3.638 3.329 3.313 3.300 3.323 3.305 3.301 3.324 3.533 3.264 3.299 3.319 3.334 3.327 3.299 3.301 3.325 3.333 3.319 3.300 3.268 3.621 3.324 3.299 3.302 3.325 3.302 3.313 3.329 3.531 3.313 3.288 3.311 3.331 3.334 3.321 3.299 2.998
# coordination-number N 3.179 3.168 3.180 3.174
# coordination-number Ti 7.387
# coordination-number O 1.988 1.055 1.982
# coordination-number H 1.006 0.996
# diagonal-C6 C 24.29 24.08 23.94 23.96 24.16 24.40 23.97 19.86 23.99 24.16 24.28 24.05 24.23 24.27 24.04 21.15 24.60 24.29 24.09 23.93 24.01 24.29 24.27 24.02 23.94 24.09 24.28 24.57 20.04 24.04 24.29 24.26 24.03 24.26 24.16 23.99 21.19 24.15 24.39 24.17 23.96 23.93 24.07 24.29 25.68
# diagonal-C6 N 15.60 15.60 15.60 15.60
# diagonal-C6 Ti 321.59
# diagonal-C6 O 10.41 12.77 10.42
# diagonal-C6 H 3.09 3.09
EvdW_6 =   -0.044424
EvdW_8 =   -0.034755

# Ionic positions in cartesian coordinates:
ion C   0.015639030084069   0.051988814628908  43.371568707211416 1
ion C  21.064259926845217   4.022201214631060  43.261267619248379 1
ion C  18.721534788295603   8.025410708498047  43.107318873552671 1
ion C  -7.026943626378324  12.028449903654634  43.120908951638206 1
ion C  -9.357093107582289  16.034278861926527  43.303938609097671 1
ion C   4.705258550420278   0.163467494347801   0.155430876631450 1
ion C   2.303315365539306   4.166072416068453   0.196392524829078 1
ion C  -0.093863876326628   8.010713858276484   0.041096126390010 1
ion C  -2.414906063658583  12.018340750695652  43.158258080533876 1
ion C  -4.705562068639911  16.042538428292126  43.233230037735957 1
ion C   9.391252046442190   0.071933372725684  43.325362415924872 1
ion C   7.108538056404863   4.192186311482127   0.269820817708996 1
ion C  -0.013444129900495  15.960295513778556   0.013385257382029 1
ion C   2.366169756798662  19.909822621081794  43.296676006828136 1
ion C  11.783702530191567   4.012639376893675  43.292962640426630 1
ion C   9.500900888860249   8.004143574746143   0.191110169689842 1
ion C   4.691323934553454  15.805283169811327   0.216940754738372 1
ion C   7.014694737338438  19.910507105228174  43.334198988143172 1
ion C  16.424392424280661   3.995761030442587  43.186449050414588 1
ion C  14.115036981489997   8.020274511450520  43.142512875679159 1
ion C  11.795290238031530  12.015922111442539  43.299211636747998 1
ion C   9.384571680994380  15.943670160079003   0.173851931487849 1
ion C   0.005179462180888   2.736894413794328   0.093422094832081 1
ion C  -2.401797151207236   6.676685666930180  43.201259889257109 1
ion C  -4.721693305598230  10.681139233443350  43.096573042715491 1
ion C  -7.028639820858745  14.702136322197109  43.207377996253889 1
ion C  -9.356503895072578  18.722739365569758  43.375509776941428 1
ion C   4.706436628395814   2.889390934968576   0.255654357486150 1
ion C  -0.099172957284670  10.698744959755453   0.013215630960631 1
ion C  -2.386217460518789  14.689185112598327  43.204772282468738 1
ion C  -4.703674389081620  18.730500939128465  43.332838970787037 1
ion C   9.407745666131355   2.752942333949783   0.119013814856537 1
ion C   2.282618691165434  14.530112706432064   0.135461315877901 1
ion C   0.002886089458700  18.639236703333005  43.290792376475004 1
ion C  14.099828059000549   2.655030067188572  43.243919203102863 1
ion C  11.807013466275686   6.685442072124486  43.264032013802563 1
ion C   9.498193856151367  10.684402380908784   0.225063744189454 1
ion C   7.081474407254628  14.501863140068997   0.305134553417911 1
ion C   4.694078505361071  18.527496571570136   0.104981782172798 1
ion C  18.750681638794120   2.660092496676969  43.245629345116122 1
ion C  16.420806973129014   6.669757579390965  43.115779362991674 1
ion C  14.108348646138349  10.690688902358248  43.153261017743056 1
ion C  11.764840216146291  14.690431613590308  43.352679933691370 1
ion C   9.373189677018768  18.628497009083798  43.374344683591524 1
ion C   4.754987452828697   8.312257695550164   5.599395609406169 1
ion N   2.168168210745864  11.948545278636981   0.210187849353983 1
ion N   7.206422300034604  11.895813856111488   0.492124466759153 1
ion N   2.192438086636040   6.766647227396684   0.253319822282104 1
ion N   7.219057789298184   6.781907400906984   0.422509560099069 1
ion Ti   4.569433132314037   9.322029996078699   1.829824894209028 1
ion O   3.282740467400560  10.298787364986117   5.323482561076180 1
ion O   5.211816142758273   7.266378234772986   7.689094115811163 1
ion O   6.854592040615982   2.607931961954369   6.508217380524084 1
ion H   6.311603766331332   4.390715415113544   6.936600736986716 1
ion H   6.328860543972117   2.414091733248922   4.740968862721719 1

# Forces in Cartesian coordinates:
force C  -0.000107496734583   0.000123407114830  -0.000318357043383 1
force C   0.000000855979175  -0.000240929526567  -0.000095526012029 1
force C   0.000149227678776  -0.000352754203323   0.000164562672870 1
force C  -0.000110335292689   0.000165802064836   0.000187125007613 1
force C  -0.000191537536028   0.000014801129858   0.000222855190412 1
force C  -0.000064051886605   0.000190719777931  -0.000348091387948 1
force C   0.000447445944436   0.000255837411755  -0.000115929932528 1
force C   0.000337623457307  -0.000261823696773   0.000223919762362 1
force C   0.000109430242745  -0.000053756498454  -0.000090453778482 1
force C  -0.000029458449558   0.000062801674849   0.000356642132380 1
force C  -0.000090190587214  -0.000035182399570  -0.000175397597258 1
force C  -0.000511989880520   0.000013413533367  -0.000453666974673 1
force C  -0.000079095333578  -0.000244621803637   0.000256456533670 1
force C  -0.000213997337737   0.000241657743727   0.000287230029505 1
force C   0.000137878382081  -0.000178273106580  -0.000235621764888 1
force C  -0.000296640656186   0.000026592455891  -0.000128774667925 1
force C  -0.000110132225792   0.000258789967038   0.000146104282485 1
force C   0.000336353113754  -0.000028100053288   0.000184287783927 1
force C   0.000161653950340   0.000129331716621   0.000326534244289 1
force C  -0.000307557941399  -0.000057421244142   0.000162576931272 1
force C  -0.000384256685128   0.000247092003040   0.000094816429613 1
force C  -0.000133951275265  -0.000362617373019   0.000104332950941 1
force C   0.000161427976495   0.000304313572734  -0.000155769067771 1
force C   0.000062273206387   0.000189488858772  -0.000066407992077 1
force C  -0.000042724072118  -0.000051513101567   0.000121653713358 1
force C   0.000015604950988  -0.000288506144365   0.000226439725060 1
force C  -0.000068697010186  -0.000399340461197  -0.000185433472515 1
force C  -0.000080470638530  -0.000446198784010  -0.000448460164996 1
force C  -0.000035680417429   0.000628663063624   0.000329654611100 1
force C  -0.000171186670451  -0.000039762064276   0.000131522568947 1
force C   0.000208242885622  -0.000026026125807   0.000037510725725 1
force C  -0.000399570086802   0.000547687292041  -0.000308968771902 1
force C   0.000058191506143  -0.000452552083073   0.000247635315103 1
force C  -0.000244061128179   0.000004569763211   0.000013408311227 1
force C   0.000018050570615   0.000041550300458   0.000287039504895 1
force C  -0.000213982332943  -0.000307670187029  -0.000179857581545 1
force C  -0.000025890013230   0.000210192515871  -0.000022276034297 1
force C  -0.000211364722786  -0.000345014916906   0.000029784572901 1
force C  -0.000036905433862   0.000038938690493   0.000217060818344 1
force C  -0.000322869850585  -0.000090302255371   0.000352026478432 1
force C  -0.000175715707217  -0.000037029809066   0.000146412547514 1
force C   0.000056139446081  -0.000366161143391   0.000177554435229 1
force C   0.000414462630460  -0.000013358789411  -0.000017111820528 1
force C   0.000019696881341   0.000200043035618  -0.000046165230105 1
force C   0.000580252407343  -0.000079140858880  -0.001124265354986 1
force N   0.000234304211119  -0.000245885709122   0.000406417500636 1
force N   0.000793484813621   0.000859513477027  -0.000315639590211 1
force N  -0.000550941386990  -0.000214548113111   0.000293751398108 1
force N   0.001525743962737  -0.001026713716546  -0.000648197171933 1
force Ti  -0.000229801664953   0.000435275494325   0.000159808763587 1
force O  -0.000395746134034   0.001145501899068  -0.000373615114869 1
force O  -0.000633239783851  -0.000026079151374   0.000395876754731 1
force O  -0.000298920500519   0.000036028650595   0.000988893318882 1
force H  -0.000253489325579   0.000493458116471  -0.000272269381158 1
force H   0.000318270933102  -0.000082211114306  -0.001003141582628 1

# Energy components:
   A_diel =       -0.1117065170614805
   Eewald =     1710.0518003018516993
       EH =     2047.8872720215508707
     Eloc =    -4313.3016117370225402
      Enl =       54.7995918621873059
     EvdW =       -0.0791794807669447
      Exc =     -113.4906524303379172
 Exc_core =        3.3745654801069462
       KE =      205.9132580640827257
  MuShift =       -0.0127852913276676
-------------------------------------
     Etot =     -404.9694477267372577
       TS =        0.0006067549446932
-------------------------------------
        F =     -404.9700544816819274
      muN =      -29.6532925460294408
-------------------------------------
        G =     -375.3167619356524938


Dumping 'jdft.fillings' ... done
Dumping 'jdft.wfns' ... done
Dumping 'jdft.fluidState' ... done
Dumping 'jdft.ionpos' ... done
Dumping 'jdft.lattice' ... done
Dumping 'jdft.eigenvals' ... done
Dumping 'jdft.eigStats' ... 
	eMin: -2.257573 at state 9 ( [ +0.000000 +0.000000 +0.000000 ] spin -1 )
	HOMO: -0.127669 at state 10 ( [ +0.000000 +0.333333 +0.000000 ] spin -1 )
	mu  : -0.127200
	LUMO: -0.125575 at state 1 ( [ +0.000000 +0.333333 +0.000000 ] spin 1 )
	eMax: +0.019897 at state 0 ( [ +0.000000 +0.000000 +0.000000 ] spin 1 )
	HOMO-LUMO gap: +0.002094
	Optical gap  : +0.003179 at state 11 ( [ +0.000000 -0.333333 +0.000000 ] spin -1 )
Dumping 'jdft.Ecomponents' ... done
IonicMinimize: Iter:   2  G: -375.316761935652494  |grad|_K:  3.437e-04  alpha:  1.000e+00  linmin:  7.427e-02  t[s]:   3792.41

#--- Lowdin population analysis ---
# oxidation-state C +0.035 +0.040 +0.035 +0.042 +0.032 +0.026 +0.159 +0.113 +0.024 +0.032 +0.029 +0.149 +0.014 +0.035 +0.040 +0.127 -0.010 +0.036 +0.030 +0.033 +0.024 +0.021 +0.015 +0.025 +0.035 +0.030 +0.035 -0.029 +0.120 +0.042 +0.029 +0.014 +0.164 +0.035 +0.033 +0.024 +0.126 +0.159 +0.037 +0.033 +0.043 +0.034 +0.041 +0.034 +0.184
[...]
	Linear fluid (dielectric constant: 78.4, screening length: 8.12261 Bohr) occupying 0.719973 of unit cell:	Completed after 13 iterations at t[s]:  43332.58
	FillingsUpdate:  mu: -0.127200000  nElectrons: 233.115863  magneticMoment: [ Abs: 0.64306  Tot: -0.58317 ]
	SubspaceRotationAdjust: set factor to 0.0971
ElecMinimize: Iter:   1  G: -375.317083556116586  |grad|_K:  1.710e-07  alpha:  2.103e-01  linmin:  9.653e-04  t[s]:  43382.69
	Linear fluid (dielectric constant: 78.4, screening length: 8.12261 Bohr) occupying 0.719980 of unit cell:	Completed after 2 iterations at t[s]:  43427.00
	Linear fluid (dielectric constant: 78.4, screening length: 8.12261 Bohr) occupying 0.719993 of unit cell:	Completed after 3 iterations at t[s]:  43466.44
	FillingsUpdate:  mu: -0.127200000  nElectrons: 233.117984  magneticMoment: [ Abs: 0.64336  Tot: -0.58363 ]
	SubspaceRotationAdjust: set factor to 0.139
ElecMinimize: Iter:   2  G: -375.317087325970931  |grad|_K:  7.124e-08  alpha:  5.849e-01  linmin: -1.969e-03  t[s]:  43516.05
	Linear fluid (dielectric constant: 78.4, screening length: 8.12261 Bohr) occupying 0.720007 of unit cell:	Completed after 2 iterations at t[s]:  43560.45
	Linear fluid (dielectric constant: 78.4, screening length: 8.12261 Bohr) occupying 0.720008 of unit cell:	Completed after 0 iterations at t[s]:  43596.24
	FillingsUpdate:  mu: -0.127200000  nElectrons: 233.119446  magneticMoment: [ Abs: 0.64381  Tot: -0.58415 ]
	SubspaceRotationAdjust: set factor to 0.173
ElecMinimize: Iter:   3  G: -375.317088016249670  |grad|_K:  4.941e-08  alpha:  6.027e-01  linmin: -1.661e-03  t[s]:  43646.02
	Linear fluid (dielectric constant: 78.4, screening length: 8.12261 Bohr) occupying 0.720027 of unit cell:	Completed after 3 iterations at t[s]:  43690.78
	Linear fluid (dielectric constant: 78.4, screening length: 8.12261 Bohr) occupying 0.720024 of unit cell:	Completed after 0 iterations at t[s]:  43726.30
	FillingsUpdate:  mu: -0.127200000  nElectrons: 233.121109  magneticMoment: [ Abs: 0.64451  Tot: -0.58489 ]
	SubspaceRotationAdjust: set factor to 0.112
ElecMinimize: Iter:   4  G: -375.317088305154016  |grad|_K:  5.952e-08  alpha:  5.272e-01  linmin: -9.025e-04  t[s]:  43776.06
	Linear fluid (dielectric constant: 78.4, screening length: 8.12261 Bohr) occupying 0.720026 of unit cell:	Completed after 2 iterations at t[s]:  43820.58
	Linear fluid (dielectric constant: 78.4, screening length: 8.12261 Bohr) occupying 0.720025 of unit cell:	Completed after 2 iterations at t[s]:  43858.54
	FillingsUpdate:  mu: -0.127200000  nElectrons: 233.121556  magneticMoment: [ Abs: 0.64417  Tot: -0.58457 ]
	SubspaceRotationAdjust: set factor to 0.0754
ElecMinimize: Iter:   5  G: -375.317088458215380  |grad|_K:  2.643e-08  alpha:  2.702e-01  linmin:  1.599e-04  t[s]:  43908.00
	Linear fluid (dielectric constant: 78.4, screening length: 8.12261 Bohr) occupying 0.720026 of unit cell:	Completed after 0 iterations at t[s]:  43950.24
ElecMinimize: 	Predicted alpha/alphaT>3.000000, increasing alphaT to 8.106066e-01.
	Linear fluid (dielectric constant: 78.4, screening length: 8.12261 Bohr) occupying 0.720029 of unit cell:	Completed after 0 iterations at t[s]:  43986.01
	Linear fluid (dielectric constant: 78.4, screening length: 8.12261 Bohr) occupying 0.720029 of unit cell:	Completed after 0 iterations at t[s]:  44021.85
	FillingsUpdate:  mu: -0.127200000  nElectrons: 233.122393  magneticMoment: [ Abs: 0.64444  Tot: -0.58482 ]
	SubspaceRotationAdjust: set factor to 0.1
ElecMinimize: Iter:   6  G: -375.317088598473731  |grad|_K:  2.478e-08  alpha:  9.294e-01  linmin:  1.947e-06  t[s]:  44071.49
	Linear fluid (dielectric constant: 78.4, screening length: 8.12261 Bohr) occupying 0.720036 of unit cell:	Completed after 2 iterations at t[s]:  44115.41
	Linear fluid (dielectric constant: 78.4, screening length: 8.12261 Bohr) occupying 0.720032 of unit cell:	Completed after 0 iterations at t[s]:  44152.80
	FillingsUpdate:  mu: -0.127200000  nElectrons: 233.122841  magneticMoment: [ Abs: 0.64468  Tot: -0.58506 ]
	SubspaceRotationAdjust: set factor to 0.0911
ElecMinimize: Iter:   7  G: -375.317088618691457  |grad|_K:  3.965e-08  alpha:  3.673e-01  linmin:  1.784e-03  t[s]:  44202.27
	Linear fluid (dielectric constant: 78.4, screening length: 8.12261 Bohr) occupying 0.720030 of unit cell:	Completed after 2 iterations at t[s]:  44247.55
	Linear fluid (dielectric constant: 78.4, screening length: 8.12261 Bohr) occupying 0.720031 of unit cell:	Completed after 0 iterations at t[s]:  44283.43
	FillingsUpdate:  mu: -0.127200000  nElectrons: 233.123022  magneticMoment: [ Abs: 0.64471  Tot: -0.58508 ]
	SubspaceRotationAdjust: set factor to 0.0925
ElecMinimize: Iter:   8  G: -375.317088645855677  |grad|_K:  2.184e-08  alpha:  1.284e-01  linmin:  1.682e-03  t[s]:  44332.95
ElecMinimize: Converged (|Delta G|<1.000000e-07 for 2 iters).
Setting wave functions to eigenvectors of Hamiltonian
Converging empty states (this may take a while): |deigs|: 3.104e-09

Computing DFT-D3 correction:
# coordination-number C 3.300 3.321 3.334 3.333 3.313 3.289 3.330 3.645 3.330 3.313 3.301 3.322 3.305 3.301 3.324 3.536 3.265 3.299 3.320 3.335 3.328 3.300 3.302 3.326 3.334 3.320 3.300 3.268 3.632 3.324 3.300 3.303 3.327 3.302 3.313 3.330 3.536 3.315 3.288 3.311 3.332 3.335 3.322 3.299 2.999
# coordination-number N 3.181 3.170 3.180 3.174
# coordination-number Ti 7.418
# coordination-number O 1.989 1.057 1.981
# coordination-number H 1.007 0.996
# diagonal-C6 C 24.28 24.08 23.93 23.95 24.16 24.39 23.98 19.78 23.98 24.15 24.28 24.06 24.23 24.27 24.04 21.12 24.59 24.29 24.08 23.92 24.00 24.28 24.27 24.02 23.93 24.08 24.28 24.57 19.92 24.04 24.28 24.25 24.01 24.27 24.15 23.98 21.12 24.13 24.39 24.17 23.96 23.92 24.06 24.29 25.67
# diagonal-C6 N 15.60 15.60 15.60 15.60
# diagonal-C6 Ti 321.59
# diagonal-C6 O 10.41 12.77 10.42
# diagonal-C6 H 3.09 3.09
EvdW_6 =   -0.044433
EvdW_8 =   -0.034772

# Ionic positions in cartesian coordinates:
ion C   0.017963870233645   0.048065539996071  43.352691401004748 1
ion C  21.065968241061046   4.017085246428762  43.276286785166143 1
ion C  18.723322039940463   8.019608994282539  43.156355067846043 1
ion C  -7.024294534132810  12.022423735122088  43.166080958465521 1
ion C  -9.354943382010884  16.028875256583937  43.308675654243856 1
ion C   4.705954249726305   0.158799482235773   0.112073590555864 1
ion C   2.306399985789117   4.161454267348332   0.158867724563814 1
ion C  -0.092404437991783   8.006370665100627   0.058496997228158 1
ion C  -2.413762484373580  12.013523260126785  43.206184040906017 1
ion C  -4.704066140163415  16.036892896167736  43.257589989889532 1
ion C   9.391517233589253   0.067405243624704  43.313954163455001 1
ion C   7.107182344983563   4.187788893399034   0.205520506915938 1
ion C  -0.012475693388433  15.955317114985746   0.050701428164925 1
ion C   2.366160293609477  19.906489171035368  43.330885696421724 1
ion C  11.784300420741255   4.007858620584172  43.278278926907412 1
ion C   9.501193438019172   8.000465309863378   0.145115761041033 1
ion C   4.692920132526265  15.803248857091099   0.236838855851310 1
ion C   7.016958106739963  19.906560954274521  43.361283885982971 1
ion C  16.425826587927922   3.991232427048279  43.224206209212937 1
ion C  14.116664057147009   8.014577026512335  43.161932082531159 1
ion C  11.798694114596421  12.012026331745572  43.301115948709679 1
ion C   9.387604832344984  15.940178578421268   0.174521746636625 1
ion C   0.008098955025327   2.733032459502668   0.076039976767757 1
ion C  -2.400137391988179   6.671788002037696  43.230984835275180 1
ion C  -4.719618235199333  10.675192373333214  43.151149298570964 1
ion C  -7.026475868996370  14.695903639627725  43.235501582296791 1
ion C  -9.355032124955764  18.717282284310912  43.350879363543470 1
ion C   4.707184654579780   2.883936635205326   0.191306631641450 1
ion C  -0.097952166454905  10.695396631909118   0.041994113643315 1
ion C  -2.385125350654854  14.684057358988161  43.245034177671108 1
ion C  -4.702456960883603  18.725530278651711  43.319307791115790 1
ion C   9.406936300593177   2.749197648444740   0.080734738338622 1
ion C   2.284980964752409  14.526649290404674   0.160695795902996 1
ion C   0.003274692050491  18.634558760180742  43.314768927769656 1
ion C  14.100645326432305   2.651047112349860  43.268581519529043 1
ion C  11.807881468055232   6.680277508827567  43.244294037559477 1
ion C   9.500496159695091  10.681541041101502   0.195057895128479 1
ion C   7.084413795069281  14.500030018991955   0.301076603338493 1
ion C   4.694939183676064  18.525152148617732   0.139933632474079 1
ion C  18.751836659934256   2.655767286323607  43.278768611969298 1
ion C  16.422436689469308   6.664516139684613  43.155102278117262 1
ion C  14.111509137151522  10.684736069032235  43.179702732437242 1
ion C  11.767905574402720  14.685887882625474  43.355761827234133 1
ion C   9.375728028141948  18.624967954474581  43.378855943766958 1
ion C   4.738140371123066   8.341663265920204   5.564439300276844 1
ion N   2.171112765650647  11.945496555697401   0.214584093818449 1
ion N   7.211128493375708  11.894931208509252   0.458049852030757 1
ion N   2.194401860926997   6.761199768922292   0.239232500765185 1
ion N   7.219968696429227   6.777546640225840   0.356149526011750 1
ion Ti   4.578483926310655   9.321379141181168   1.791909932064929 1
ion O   3.329990774744443  10.374110613665160   5.272653223692128 1
ion O   5.141224775647788   7.289632851268925   7.662128003129840 1
ion O   6.782839302369907   2.632891334789640   6.516000625444037 1
ion H   6.219597511256922   4.422443163638719   6.897171367537021 1
ion H   6.444769755353885   2.440427059577845   4.702827839438103 1

# Forces in Cartesian coordinates:
force C   0.000016378840656  -0.000011282899391  -0.000056151478745 1
force C  -0.000080956659098  -0.000020472243582   0.000128783297517 1
force C  -0.000017433483131  -0.000068240502113  -0.000043596212240 1
force C  -0.000084157872808  -0.000012544877130   0.000070050947913 1
force C  -0.000077724039874   0.000012885655951  -0.000028546914877 1
force C   0.000056241010541   0.000004889678311   0.000161863484817 1
force C  -0.000059401117591   0.000049546389387  -0.000039207599209 1
force C   0.000151757580167  -0.000048863842896   0.000085123747566 1
force C  -0.000079751155545  -0.000080844791864   0.000124347195910 1
force C   0.000031949850046   0.000011072457155   0.000024497110860 1
force C  -0.000020231078890  -0.000096689074859   0.000040798994917 1
force C  -0.000039289401031  -0.000093586112239   0.000108196598642 1
force C  -0.000022623508648   0.000042638912612  -0.000123246849498 1
force C  -0.000064257982535  -0.000087616040626  -0.000142327109489 1
force C   0.000066549947526  -0.000073854740281   0.000055769188845 1
force C  -0.000073124639945   0.000079929091038   0.000067027663868 1
force C  -0.000031112987542  -0.000048019959303   0.000030467541870 1
force C   0.000024129825324  -0.000081735330161  -0.000029653596086 1
force C   0.000056027350777   0.000051911379911   0.000202731503545 1
force C   0.000045062766232   0.000092337092356   0.000016737996500 1
force C  -0.000081616575731   0.000080227598233   0.000011653930614 1
force C  -0.000087419593530  -0.000044690432331  -0.000109501066985 1
force C  -0.000027854853267  -0.000003852578301  -0.000073852558735 1
force C  -0.000072570832402   0.000113604990524   0.000170434770027 1
force C   0.000016120184734   0.000049982360969  -0.000027241596863 1
force C   0.000016729066574  -0.000056747688506   0.000148788407297 1
force C  -0.000122647001761   0.000072531632895   0.000013504202198 1
force C  -0.000011372113003  -0.000039833485265   0.000205435470006 1
force C   0.000116726704287   0.000036148660142   0.000019577175190 1
force C  -0.000060121254901   0.000015947789407   0.000102745996716 1
force C   0.000048034079285   0.000085660297620   0.000015427393460 1
force C  -0.000059152215265   0.000067836520807   0.000068820761123 1
force C  -0.000113516781931  -0.000035285881950  -0.000148696722431 1
force C   0.000050780527748   0.000094089051863  -0.000075785880955 1
force C  -0.000067900480004   0.000029866370581  -0.000056698941308 1
force C  -0.000010673353267  -0.000085466501836   0.000136508339804 1
force C  -0.000015813890298  -0.000143543105079   0.000051080707849 1
force C  -0.000018891721253   0.000012130005823  -0.000061498336169 1
force C   0.000047004982485  -0.000013119814994  -0.000001113754499 1
force C   0.000025059786393   0.000019309863933   0.000061089696004 1
force C  -0.000078671670640   0.000039471137545   0.000153660243098 1
force C  -0.000002116143980  -0.000085359315409  -0.000095807036472 1
force C   0.000076495793918   0.000097973143554  -0.000070754480042 1
force C  -0.000052442949911   0.000114276624610  -0.000070829403323 1
force C  -0.000361114678652   0.000136379259419  -0.000050358850082 1
force N   0.000006581063539  -0.000048621427660  -0.000276035049858 1
force N   0.000002774119991   0.000005896864699  -0.000121312146868 1
force N   0.000106255129113   0.000059974910804  -0.000211505531909 1
force N  -0.000055744031296  -0.000013255384785  -0.000021039417997 1
force Ti   0.000020729742394   0.000144147961097  -0.000117625400725 1
force O   0.000324144909181  -0.000074230437590  -0.000102649406601 1
force O  -0.000097948465046  -0.000098371809181  -0.000108154718909 1
force O  -0.000033802561248  -0.000058752711949   0.000210539485059 1
force H  -0.000012577085374  -0.000031243876920  -0.000003656872168 1
force H   0.000073876244030   0.000282491403372  -0.000406714251882 1

# Energy components:
   A_diel =       -0.1117249056296161
   Eewald =     1711.8599021332343000
       EH =     2049.6736948675834356
     Eloc =    -4316.9212826714783660
      Enl =       54.8032595446029518
     EvdW =       -0.0792051833271302
      Exc =     -113.5007351379914837
 Exc_core =        3.3745656181671424
       KE =      205.9445845589172563
  MuShift =       -0.0127813411139219
-------------------------------------
     Etot =     -404.9697225170355068
       TS =        0.0006145259847194
-------------------------------------
        F =     -404.9703370430202085
      muN =      -29.6532483971645462
-------------------------------------
        G =     -375.3170886458556765


Dumping 'jdft.fillings' ... done
Dumping 'jdft.wfns' ... done
Dumping 'jdft.fluidState' ... done
Dumping 'jdft.ionpos' ... done
Dumping 'jdft.lattice' ... done
Dumping 'jdft.eigenvals' ... done
Dumping 'jdft.eigStats' ... 
	eMin: -2.258104 at state 9 ( [ +0.000000 +0.000000 +0.000000 ] spin -1 )
	HOMO: -0.127769 at state 11 ( [ +0.000000 -0.333333 +0.000000 ] spin -1 )
	mu  : -0.127200
	LUMO: -0.125684 at state 2 ( [ +0.000000 -0.333333 +0.000000 ] spin 1 )
	eMax: +0.019870 at state 0 ( [ +0.000000 +0.000000 +0.000000 ] spin 1 )
	HOMO-LUMO gap: +0.002084
	Optical gap  : +0.003310 at state 10 ( [ +0.000000 +0.333333 +0.000000 ] spin -1 )
Dumping 'jdft.Ecomponents' ... done
IonicMinimize: Iter:  21  G: -375.317088645855677  |grad|_K:  9.741e-05  alpha:  1.000e+00  linmin: -3.774e-01  t[s]:  44456.28
IonicMinimize: Converged (|grad|_K<1.000000e-04).

#--- Lowdin population analysis ---
# oxidation-state C +0.035 +0.040 +0.035 +0.042 +0.032 +0.026 +0.159 +0.113 +0.024 +0.032 +0.028 +0.147 +0.014 +0.035 +0.039 +0.127 -0.010 +0.036 +0.030 +0.033 +0.024 +0.021 +0.016 +0.025 +0.035 +0.030 +0.035 -0.027 +0.119 +0.042 +0.029 +0.012 +0.164 +0.035 +0.033 +0.024 +0.125 +0.159 +0.037 +0.033 +0.043 +0.034 +0.041 +0.034 +0.183
# magnetic-moments C -0.001 -0.007 -0.001 -0.003 -0.003 -0.002 -0.010 -0.009 -0.006 -0.003 -0.001 -0.010 -0.016 -0.009 -0.008 -0.004 +0.002 -0.007 -0.001 -0.005 -0.002 -0.000 -0.013 -0.003 -0.000 -0.001 -0.006 +0.003 -0.002 -0.002 -0.005 +0.000 -0.005 +0.000 -0.003 -0.002 -0.009 -0.007 -0.002 -0.002 -0.002 -0.005 -0.009 -0.001 -0.010
# oxidation-state N -0.326 -0.331 -0.320 -0.319
# magnetic-moments N -0.008 -0.004 -0.005 -0.006
# oxidation-state Ti +1.386
# magnetic-moments Ti -0.349
# oxidation-state O -0.520 -0.527 -0.819
# magnetic-moments O +0.001 -0.007 -0.000
# oxidation-state H +0.388 +0.408
# magnetic-moments H +0.000 -0.000


Dumping 'jdft.n_up' ... done
Dumping 'jdft.n_dn' ... done
Dumping 'jdft.tau_up' ... done
Dumping 'jdft.tau_dn' ... done
Dumping 'jdft.eigenvals' ... done
Dumping 'jdft.eigStats' ... 
	eMin: -2.258104 at state 9 ( [ +0.000000 +0.000000 +0.000000 ] spin -1 )
	HOMO: -0.127769 at state 11 ( [ +0.000000 -0.333333 +0.000000 ] spin -1 )
	mu  : -0.127200
	LUMO: -0.125684 at state 2 ( [ +0.000000 -0.333333 +0.000000 ] spin 1 )
	eMax: +0.019870 at state 0 ( [ +0.000000 +0.000000 +0.000000 ] spin 1 )
	HOMO-LUMO gap: +0.002084
	Optical gap  : +0.003310 at state 10 ( [ +0.000000 +0.333333 +0.000000 ] spin -1 )
Dumping 'jdft.kPts' ... done
Dumping 'jdft.dosUp' ... done.
Dumping 'jdft.dosDn' ... done.
End date and time: Sun Jul 31 15:44:35 2022  (Duration: 0-12:22:13.19)
Done!

PROFILER:             augmentDensityGrid     0.681436 +/-     0.807989 s, 3050 calls,   2078.380850 s total
PROFILER:         augmentDensityGridGrad     0.478703 +/-     0.571398 s, 1695 calls,    811.401822 s total
PROFILER:        augmentDensitySpherical     0.000455 +/-     0.000642 s, 3050 calls,      1.386609 s total
PROFILER:    augmentDensitySphericalGrad     0.000724 +/-     0.002480 s, 2025 calls,      1.466037 s total
PROFILER:                 augmentOverlap     1.434387 +/-     2.052538 s, 6710 calls,   9624.738808 s total
PROFILER:                     diagouterI    14.437656 +/-     0.111292 s,  613 calls,   8850.283009 s total
PROFILER:              EdensityAndVscloc     9.279664 +/-     2.607851 s,  610 calls,   5660.594879 s total
PROFILER:                     EnlAndGrad     0.001589 +/-     0.002370 s, 3495 calls,      5.552021 s total
PROFILER:            ExCorrCommunication     0.056740 +/-     0.060048 s, 3915 calls,    222.135920 s total
PROFILER:               ExCorrFunctional     0.021240 +/-     0.003893 s,  680 calls,     14.443475 s total
PROFILER:                    ExCorrTotal     0.584724 +/-     0.137189 s,  680 calls,    397.612307 s total
PROFILER:                   Idag_DiagV_I    27.118274 +/-     5.445021 s,  382 calls,  10359.180643 s total
PROFILER:                    initWeights     1.881451 +/-     0.000000 s,    1 calls,      1.881451 s total
PROFILER:                    inv(matrix)     0.002343 +/-     0.002025 s,  605 calls,      1.417744 s total
PROFILER:            matrix::diagonalize     0.008388 +/-     0.004981 s,  991 calls,      8.312275 s total
PROFILER:                    matrix::set     0.000003 +/-     0.000003 s, 61146 calls,      0.169367 s total
PROFILER:            orthoMatrix(matrix)     0.001907 +/-     0.001022 s,  652 calls,      1.243270 s total
PROFILER:     RadialFunctionR::transform     0.012786 +/-     0.131896 s,  146 calls,      1.866694 s total
PROFILER:                    reduceKmesh     0.000000 +/-     0.000000 s,    1 calls,      0.000000 s total
PROFILER:   VanDerWaalsD3::energyAndGrad     0.034636 +/-     0.001379 s,   47 calls,      1.627883 s total
PROFILER:               WavefunctionDrag    26.852311 +/-     2.641176 s,   23 calls,    617.603150 s total
PROFILER:                            Y*M     0.647699 +/-     0.794428 s, 11280 calls,   7306.041897 s total
PROFILER:                          Y1^Y2     0.701999 +/-     0.835899 s, 8535 calls,   5991.563446 s total

MEMUSAGE:                   ColumnBundle     1.365987 GB
MEMUSAGE:        complexScalarFieldTilde     0.074158 GB
MEMUSAGE:                    IndexArrays     0.023178 GB
MEMUSAGE:                         matrix     0.020850 GB
MEMUSAGE:                           misc     0.051230 GB
MEMUSAGE:                    ScalarField     0.358429 GB
MEMUSAGE:               ScalarFieldTilde     0.262436 GB
MEMUSAGE:                          Total     1.646313 GB
