
*************** JDFTx 1.7.0 (git hash 5f12716a) ***************

Start date and time: Tue Mar 14 13:32:57 2023
Executable /home/nisi6161/jdftx_alpine/build/jdftx with command-line: -i in
Running on hosts (process indices):  c3cpu-a2-u1-1.rc.int.colorado.edu (0-17)
Divided in process groups (process indices):  0 (0)  1 (1)  2 (2)  3 (3)  4 (4)  5 (5)  6 (6)  7 (7)  8 (8)  9 (9)  10 (10)  11 (11)  12 (12)  13 (13)  14 (14)  15 (15)  16 (16)  17 (17)
Resource initialization completed at t[s]:      0.00
Run totals: 18 processes, 64 threads, 0 GPUs


Input parsed successfully to the following command list (including defaults):

basis kpoint-dependent
converge-empty-states yes
coords-type Cartesian
core-overlap-check none
coulomb-interaction Periodic
davidson-band-ratio 1.1
density-of-states Etol 1.000000e-06 Esigma 1.000000e-03 \
		Complete \
	Total \
	OrthoOrbital C 1   s \
	OrthoOrbital C 1   p \
	OrthoOrbital C 1   px \
	OrthoOrbital C 1   py \
	OrthoOrbital C 1   pz \
	OrthoOrbital C 2   s \
	OrthoOrbital C 2   p \
	OrthoOrbital C 2   px \
	OrthoOrbital C 2   py \
	OrthoOrbital C 2   pz \
	OrthoOrbital C 3   s \
	OrthoOrbital C 3   p \
	OrthoOrbital C 3   px \
	OrthoOrbital C 3   py \
	OrthoOrbital C 3   pz \
	OrthoOrbital C 4   s \
	OrthoOrbital C 4   p \
	OrthoOrbital C 4   px \
	OrthoOrbital C 4   py \
	OrthoOrbital C 4   pz \
	OrthoOrbital C 5   s \
	OrthoOrbital C 5   p \
	OrthoOrbital C 5   px \
	OrthoOrbital C 5   py \
	OrthoOrbital C 5   pz \
	OrthoOrbital C 6   s \
	OrthoOrbital C 6   p \
	OrthoOrbital C 6   px \
	OrthoOrbital C 6   py \
	OrthoOrbital C 6   pz \
	OrthoOrbital C 7   s \
	OrthoOrbital C 7   p \
	OrthoOrbital C 7   px \
	OrthoOrbital C 7   py \
	OrthoOrbital C 7   pz \
	OrthoOrbital C 8   s \
	OrthoOrbital C 8   p \
	OrthoOrbital C 8   px \
	OrthoOrbital C 8   py \
	OrthoOrbital C 8   pz \
	OrthoOrbital C 9   s \
	OrthoOrbital C 9   p \
	OrthoOrbital C 9   px \
	OrthoOrbital C 9   py \
	OrthoOrbital C 9   pz \
	OrthoOrbital C 10   s \
	OrthoOrbital C 10   p \
	OrthoOrbital C 10   px \
	OrthoOrbital C 10   py \
	OrthoOrbital C 10   pz \
	OrthoOrbital C 11   s \
	OrthoOrbital C 11   p \
	OrthoOrbital C 11   px \
	OrthoOrbital C 11   py \
	OrthoOrbital C 11   pz \
	OrthoOrbital C 12   s \
	OrthoOrbital C 12   p \
	OrthoOrbital C 12   px \
	OrthoOrbital C 12   py \
	OrthoOrbital C 12   pz \
	OrthoOrbital C 13   s \
	OrthoOrbital C 13   p \
	OrthoOrbital C 13   px \
	OrthoOrbital C 13   py \
	OrthoOrbital C 13   pz \
	OrthoOrbital C 14   s \
	OrthoOrbital C 14   p \
	OrthoOrbital C 14   px \
	OrthoOrbital C 14   py \
	OrthoOrbital C 14   pz \
	OrthoOrbital C 15   s \
	OrthoOrbital C 15   p \
	OrthoOrbital C 15   px \
	OrthoOrbital C 15   py \
	OrthoOrbital C 15   pz \
	OrthoOrbital C 16   s \
	OrthoOrbital C 16   p \
	OrthoOrbital C 16   px \
	OrthoOrbital C 16   py \
	OrthoOrbital C 16   pz \
	OrthoOrbital C 17   s \
	OrthoOrbital C 17   p \
	OrthoOrbital C 17   px \
	OrthoOrbital C 17   py \
	OrthoOrbital C 17   pz \
	OrthoOrbital C 18   s \
	OrthoOrbital C 18   p \
	OrthoOrbital C 18   px \
	OrthoOrbital C 18   py \
	OrthoOrbital C 18   pz \
	OrthoOrbital C 19   s \
	OrthoOrbital C 19   p \
	OrthoOrbital C 19   px \
	OrthoOrbital C 19   py \
	OrthoOrbital C 19   pz \
	OrthoOrbital C 20   s \
	OrthoOrbital C 20   p \
	OrthoOrbital C 20   px \
	OrthoOrbital C 20   py \
	OrthoOrbital C 20   pz \
	OrthoOrbital C 21   s \
	OrthoOrbital C 21   p \
	OrthoOrbital C 21   px \
	OrthoOrbital C 21   py \
	OrthoOrbital C 21   pz \
	OrthoOrbital C 22   s \
	OrthoOrbital C 22   p \
	OrthoOrbital C 22   px \
	OrthoOrbital C 22   py \
	OrthoOrbital C 22   pz \
	OrthoOrbital C 23   s \
	OrthoOrbital C 23   p \
	OrthoOrbital C 23   px \
	OrthoOrbital C 23   py \
	OrthoOrbital C 23   pz \
	OrthoOrbital C 24   s \
	OrthoOrbital C 24   p \
	OrthoOrbital C 24   px \
	OrthoOrbital C 24   py \
	OrthoOrbital C 24   pz \
	OrthoOrbital C 25   s \
	OrthoOrbital C 25   p \
	OrthoOrbital C 25   px \
	OrthoOrbital C 25   py \
	OrthoOrbital C 25   pz \
	OrthoOrbital C 26   s \
	OrthoOrbital C 26   p \
	OrthoOrbital C 26   px \
	OrthoOrbital C 26   py \
	OrthoOrbital C 26   pz \
	OrthoOrbital C 27   s \
	OrthoOrbital C 27   p \
	OrthoOrbital C 27   px \
	OrthoOrbital C 27   py \
	OrthoOrbital C 27   pz \
	OrthoOrbital C 28   s \
	OrthoOrbital C 28   p \
	OrthoOrbital C 28   px \
	OrthoOrbital C 28   py \
	OrthoOrbital C 28   pz \
	OrthoOrbital C 29   s \
	OrthoOrbital C 29   p \
	OrthoOrbital C 29   px \
	OrthoOrbital C 29   py \
	OrthoOrbital C 29   pz \
	OrthoOrbital C 30   s \
	OrthoOrbital C 30   p \
	OrthoOrbital C 30   px \
	OrthoOrbital C 30   py \
	OrthoOrbital C 30   pz \
	OrthoOrbital C 31   s \
	OrthoOrbital C 31   p \
	OrthoOrbital C 31   px \
	OrthoOrbital C 31   py \
	OrthoOrbital C 31   pz \
	OrthoOrbital C 32   s \
	OrthoOrbital C 32   p \
	OrthoOrbital C 32   px \
	OrthoOrbital C 32   py \
	OrthoOrbital C 32   pz \
	OrthoOrbital C 33   s \
	OrthoOrbital C 33   p \
	OrthoOrbital C 33   px \
	OrthoOrbital C 33   py \
	OrthoOrbital C 33   pz \
	OrthoOrbital C 34   s \
	OrthoOrbital C 34   p \
	OrthoOrbital C 34   px \
	OrthoOrbital C 34   py \
	OrthoOrbital C 34   pz \
	OrthoOrbital C 35   s \
	OrthoOrbital C 35   p \
	OrthoOrbital C 35   px \
	OrthoOrbital C 35   py \
	OrthoOrbital C 35   pz \
	OrthoOrbital C 36   s \
	OrthoOrbital C 36   p \
	OrthoOrbital C 36   px \
	OrthoOrbital C 36   py \
	OrthoOrbital C 36   pz \
	OrthoOrbital C 37   s \
	OrthoOrbital C 37   p \
	OrthoOrbital C 37   px \
	OrthoOrbital C 37   py \
	OrthoOrbital C 37   pz \
	OrthoOrbital C 38   s \
	OrthoOrbital C 38   p \
	OrthoOrbital C 38   px \
	OrthoOrbital C 38   py \
	OrthoOrbital C 38   pz \
	OrthoOrbital C 39   s \
	OrthoOrbital C 39   p \
	OrthoOrbital C 39   px \
	OrthoOrbital C 39   py \
	OrthoOrbital C 39   pz \
	OrthoOrbital C 40   s \
	OrthoOrbital C 40   p \
	OrthoOrbital C 40   px \
	OrthoOrbital C 40   py \
	OrthoOrbital C 40   pz \
	OrthoOrbital C 41   s \
	OrthoOrbital C 41   p \
	OrthoOrbital C 41   px \
	OrthoOrbital C 41   py \
	OrthoOrbital C 41   pz \
	OrthoOrbital C 42   s \
	OrthoOrbital C 42   p \
	OrthoOrbital C 42   px \
	OrthoOrbital C 42   py \
	OrthoOrbital C 42   pz \
	OrthoOrbital C 43   s \
	OrthoOrbital C 43   p \
	OrthoOrbital C 43   px \
	OrthoOrbital C 43   py \
	OrthoOrbital C 43   pz \
	OrthoOrbital C 44   s \
	OrthoOrbital C 44   p \
	OrthoOrbital C 44   px \
	OrthoOrbital C 44   py \
	OrthoOrbital C 44   pz \
	OrthoOrbital C 45   s \
	OrthoOrbital C 45   p \
	OrthoOrbital C 45   px \
	OrthoOrbital C 45   py \
	OrthoOrbital C 45   pz \
	OrthoOrbital N 1   s \
	OrthoOrbital N 1   p \
	OrthoOrbital N 1   px \
	OrthoOrbital N 1   py \
	OrthoOrbital N 1   pz \
	OrthoOrbital N 2   s \
	OrthoOrbital N 2   p \
	OrthoOrbital N 2   px \
	OrthoOrbital N 2   py \
	OrthoOrbital N 2   pz \
	OrthoOrbital N 3   s \
	OrthoOrbital N 3   p \
	OrthoOrbital N 3   px \
	OrthoOrbital N 3   py \
	OrthoOrbital N 3   pz \
	OrthoOrbital N 4   s \
	OrthoOrbital N 4   p \
	OrthoOrbital N 4   px \
	OrthoOrbital N 4   py \
	OrthoOrbital N 4   pz \
	OrthoOrbital Ti 1   s \
	OrthoOrbital Ti 1   p \
	OrthoOrbital Ti 1   px \
	OrthoOrbital Ti 1   py \
	OrthoOrbital Ti 1   pz \
	OrthoOrbital Ti 1   d \
	OrthoOrbital Ti 1   dxy \
	OrthoOrbital Ti 1   dyz \
	OrthoOrbital Ti 1   dz2 \
	OrthoOrbital Ti 1   dxz \
	OrthoOrbital Ti 1   dx2-y2 \
	OrthoOrbital O 1   s \
	OrthoOrbital O 1   p \
	OrthoOrbital O 1   px \
	OrthoOrbital O 1   py \
	OrthoOrbital O 1   pz
dump End ElecDensity KEdensity BandEigs EigStats RhoAtom DOS Kpoints
dump Ionic State IonicPositions Lattice EigStats Ecomponents
dump 
dump 
dump 
dump 
dump 
dump 
dump 
dump 
dump-name jdft.$VAR
elec-cutoff 20
elec-eigen-algo Davidson
elec-ex-corr gga-PBE
elec-initial-magnetization 0.000000 no
elec-n-bands 131
elec-smearing Fermi 0.001
electronic-minimize  \
	dirUpdateScheme      FletcherReeves \
	linminMethod         DirUpdateRecommended \
	nIterations          100 \
	history              15 \
	knormThreshold       0 \
	energyDiffThreshold  1e-07 \
	nEnergyDiff          2 \
	alphaTstart          1 \
	alphaTmin            1e-10 \
	updateTestStepSize   yes \
	alphaTreduceFactor   0.1 \
	alphaTincreaseFactor 3 \
	nAlphaAdjustMax      3 \
	wolfeEnergy          0.0001 \
	wolfeGradient        0.9 \
	fdTest               no
exchange-regularization WignerSeitzTruncated
fluid LinearPCM 298.000000 1.013250
fluid-anion F- 0.5 MeanFieldLJ \
	epsBulk 1 \
	pMol 0 \
	epsInf 1 \
	Pvap 0 \
	sigmaBulk 0 \
	Rvdw 2.24877 \
	Res 0 \
	tauNuc 343133
fluid-cation Na+ 0.5 MeanFieldLJ \
	epsBulk 1 \
	pMol 0 \
	epsInf 1 \
	Pvap 0 \
	sigmaBulk 0 \
	Rvdw 2.19208 \
	Res 0 \
	tauNuc 343133
fluid-ex-corr lda-TF lda-PZ
fluid-gummel-loop 10 1.000000e-05
fluid-minimize  \
	dirUpdateScheme      PolakRibiere \
	linminMethod         DirUpdateRecommended \
	nIterations          400 \
	history              15 \
	knormThreshold       1e-11 \
	energyDiffThreshold  0 \
	nEnergyDiff          2 \
	alphaTstart          1 \
	alphaTmin            1e-10 \
	updateTestStepSize   yes \
	alphaTreduceFactor   0.1 \
	alphaTincreaseFactor 3 \
	nAlphaAdjustMax      6 \
	wolfeEnergy          0.0001 \
	wolfeGradient        0.9 \
	fdTest               no
fluid-solvent H2O 55.338 ScalarEOS \
	epsBulk 78.4 \
	pMol 0.92466 \
	epsInf 1.77 \
	Pvap 1.06736e-10 \
	sigmaBulk 4.62e-05 \
	Rvdw 2.61727 \
	Res 1.42 \
	tauNuc 343133 \
	poleEl 15 7 1
forces-output-coords Positions
ion C  23.419180000000004   0.018695000000000  43.250261000000009 1
ion C  21.031352000000002   3.964618000000001  43.200422000000010 1
ion C  18.688414000000005   7.968838000000001  43.081647000000004 1
ion C  16.380407000000002  11.990593000000004  43.069116000000008 1
ion C  -9.383419999999999  15.985093000000004  43.193632000000008 1
ion C   4.673390000000001   0.119957000000000   0.053476000000000 1
ion C   2.274218000000000   4.123095000000001   0.154677000000000 1
ion C  -0.124672000000000   7.946634000000003   0.076103000000000 1
ion C  -2.437388000000000  11.959029000000001  43.176677000000005 1
ion C  -4.732765000000001  15.991274000000004  43.183016000000009 1
ion C   9.356190000000000   0.023238000000000   0.010450000000000 1
ion C   7.058466000000002   4.154537000000001   0.252653000000000 1
ion C  -0.038834000000001  15.894342000000004   0.005609000000000 1
ion C   2.331272000000002  19.853413000000003  43.250895000000007 1
ion C  11.741051000000004   3.961288000000001  43.242269000000007 1
ion C   9.462717000000001   7.958154000000001   0.191363000000000 1
ion C   4.661134000000002  15.747289000000000   0.182617000000000 1
ion C   6.981856000000002  19.853470999999999   0.001383000000000 1
ion C  16.386358999999999   3.939502000000001  43.137455000000010 1
ion C  14.076564000000001   7.966604000000002  43.084170000000007 1
ion C  11.759965000000001  11.966616999999999  43.213427000000010 1
ion C   9.354329999999999  15.884894000000001   0.069780000000000 1
ion C  -0.028970000000000   2.687475000000001   0.007740000000000 1
ion C  -2.433772000000000   6.618415000000001  43.177645000000005 1
ion C  -4.749178000000001  10.622667000000000  43.081437000000008 1
ion C  -7.056528000000000  14.648706000000002  43.137648000000006 1
ion C  -9.385168000000000  18.673175000000001  43.252072000000005 1
ion C   4.670738000000002   2.841908000000001   0.185472000000000 1
ion C  -0.126645000000000  10.634720000000002   0.074994000000000 1
ion C  -2.412063000000002  14.630831000000004  43.199177000000006 1
ion C  -4.734948000000001  18.680274000000001   0.002206000000000 1
ion C   9.363601000000001   2.711374000000001   0.071084000000000 1
ion C   2.266487999999999  14.463141000000002   0.151460000000000 1
ion C  -0.031856999999999  18.580906000000002  43.249198000000007 1
ion C  14.061641000000002   2.599624000000000  43.193286000000008 1
ion C  11.763461000000001   6.632988000000001  43.214039000000007 1
ion C   9.461122000000000  10.638050000000002   0.190360000000000 1
ion C   7.051219000000001  14.438840000000004   0.250043000000000 1
ion C   4.658958000000002  18.468817999999999   0.051635000000000 1
ion C  18.712414000000003   2.600646000000001  43.183040000000005 1
ion C  16.383405000000003   6.615631000000001  43.069164000000008 1
ion C  14.075048000000004  10.636418000000003  43.084098000000004 1
ion C  11.733832000000000  14.638285000000000  43.241684000000006 1
ion C   9.342264000000000  18.572887000000001   0.010034000000000 1
ion C   4.926898000000001   9.332360000000001   7.637543000000001 1
ion N   2.159938000000001  11.862763000000001   0.312250000000000 1
ion N   7.170319999999998  11.835448000000003   0.494557000000000 1
ion N   2.164011999999999   6.723762000000002   0.315049000000000 1
ion N   7.173650000000000   6.758289000000001   0.496981000000000 1
ion Ti   4.526661000000000   9.300124000000002   1.970501000000000 1
ion O   4.906700000000000   9.334518000000001   9.788628000000001 1
ion-species /projects/musgravc/apps/jdftx-1.6.0/build/pseudopotentials/GBRV_v1.5/$ID_pbe_v1.uspp
ion-species /projects/musgravc/apps/jdftx-1.6.0/build/pseudopotentials/GBRV_v1.5/$ID_pbe_v1.2.uspp
ion-species /projects/musgravc/apps/jdftx-1.6.0/build/pseudopotentials/GBRV_v1.5/$ID_pbe_v1.4.uspp
ion-species /projects/musgravc/apps/jdftx-1.6.0/build/pseudopotentials/GBRV_v1.5/$ID_pbe_v1.5.uspp
ion-width Ecut
ionic-minimize  \
	dirUpdateScheme      L-BFGS \
	linminMethod         DirUpdateRecommended \
	nIterations          0 \
	history              15 \
	knormThreshold       0.0001 \
	energyDiffThreshold  1e-06 \
	nEnergyDiff          2 \
	alphaTstart          1 \
	alphaTmin            1e-10 \
	updateTestStepSize   yes \
	alphaTreduceFactor   0.1 \
	alphaTincreaseFactor 3 \
	nAlphaAdjustMax      3 \
	wolfeEnergy          0.0001 \
	wolfeGradient        0.9 \
	fdTest               no
kpoint   0.000000000000   0.000000000000   0.000000000000  1.00000000000000
kpoint-folding 3 3 1 
latt-move-scale 0 0 0
latt-scale 1 1 1 
lattice  \
	  23.436261999999999  -11.733459000000000    0.000000000000000  \
	   0.017994000000000   19.941849000000001    0.000000000000000  \
	   0.000000000000000    0.000000000000000   43.256312999999999 
lattice-minimize  \
	dirUpdateScheme      L-BFGS \
	linminMethod         DirUpdateRecommended \
	nIterations          0 \
	history              15 \
	knormThreshold       0 \
	energyDiffThreshold  1e-06 \
	nEnergyDiff          2 \
	alphaTstart          1 \
	alphaTmin            1e-10 \
	updateTestStepSize   yes \
	alphaTreduceFactor   0.1 \
	alphaTincreaseFactor 3 \
	nAlphaAdjustMax      3 \
	wolfeEnergy          0.0001 \
	wolfeGradient        0.9 \
	fdTest               no
lcao-params 30 1e-06 0.001
pcm-variant CANDLE
spintype z-spin
subspace-rotation-factor 1 yes
symmetries none
symmetry-threshold 0.0001
target-mu -0.1455 no

van-der-waals D3


Applied RMS atom displacement 0 bohrs to make symmetries exact.

---------- Initializing the Grid ----------
R = 
[      23.4363     -11.7335            0  ]
[     0.017994      19.9418            0  ]
[            0            0      43.2563  ]
unit cell volume = 20225.5
G =
[   0.267976   0.157673         -0  ]
[ -0.000241801   0.314933          0  ]
[          0         -0   0.145255  ]
Minimum fftbox size, Smin = [  96  96  176  ]
Chosen fftbox size, S = [  96  96  180  ]

---------- Exchange Correlation functional ----------
Initalized PBE GGA exchange.
Initalized PBE GGA correlation.

---------- Setting up pseudopotentials ----------
Width of ionic core gaussian charges (only for fluid interactions / plotting) set to 0.397384

Reading pseudopotential file '/projects/musgravc/apps/jdftx-1.6.0/build/pseudopotentials/GBRV_v1.5/c_pbe_v1.2.uspp':
  Title: C.  Created by USPP 7.3.6 on 3-2-2014
  Reference state energy: -5.406344.  4 valence electrons in orbitals:
    |200>  occupation: 2  eigenvalue: -0.504890
    |210>  occupation: 2  eigenvalue: -0.194356
  lMax: 1  lLocal: 2  QijEcut: 5
  4 projectors sampled on a log grid with 503 points:
    l: 0  eig: -0.504890  rCut: 1.3
    l: 0  eig: 0.000000  rCut: 1.3
    l: 1  eig: -0.194357  rCut: 1.3
    l: 1  eig: 0.000000  rCut: 1.3
  Partial core density with radius 1.1
  Transforming core density to a uniform radial grid of dG=0.02 with 1464 points.
  Transforming local potential to a uniform radial grid of dG=0.02 with 1464 points.
  Transforming nonlocal projectors to a uniform radial grid of dG=0.02 with 432 points.
  Transforming density augmentations to a uniform radial grid of dG=0.02 with 1464 points.
  Transforming atomic orbitals to a uniform radial grid of dG=0.02 with 432 points.
  Core radius for overlap checks: 1.30 bohrs.

Reading pseudopotential file '/projects/musgravc/apps/jdftx-1.6.0/build/pseudopotentials/GBRV_v1.5/n_pbe_v1.2.uspp':
  Title: N.  Created by USPP 7.3.6 on 3-2-2014
  Reference state energy: -9.763716.  5 valence electrons in orbitals:
    |200>  occupation: 2  eigenvalue: -0.681964
    |210>  occupation: 3  eigenvalue: -0.260726
  lMax: 1  lLocal: 2  QijEcut: 6
  4 projectors sampled on a log grid with 491 points:
    l: 0  eig: -0.681964  rCut: 1.15
    l: 0  eig: 0.000000  rCut: 1.15
    l: 1  eig: -0.260729  rCut: 1.2
    l: 1  eig: 0.500000  rCut: 1.2
  Partial core density with radius 0.8
  Transforming core density to a uniform radial grid of dG=0.02 with 1464 points.
  Transforming local potential to a uniform radial grid of dG=0.02 with 1464 points.
  Transforming nonlocal projectors to a uniform radial grid of dG=0.02 with 432 points.
  Transforming density augmentations to a uniform radial grid of dG=0.02 with 1464 points.
  Transforming atomic orbitals to a uniform radial grid of dG=0.02 with 432 points.
  Core radius for overlap checks: 1.20 bohrs.

Reading pseudopotential file '/projects/musgravc/apps/jdftx-1.6.0/build/pseudopotentials/GBRV_v1.5/ti_pbe_v1.4.uspp':
  Title: Ti.  Created by USPP 7.3.6 on 31-3-15
  Reference state energy: -59.020943.  12 valence electrons in orbitals:
    |300>  occupation: 2  eigenvalue: -2.777623
    |310>  occupation: 6  eigenvalue: -1.894596
    |400>  occupation: 2  eigenvalue: -0.438610
    |320>  occupation: 1  eigenvalue: -0.583119
  lMax: 2  lLocal: 3  QijEcut: 6
  6 projectors sampled on a log grid with 597 points:
    l: 0  eig: -2.777624  rCut: 1.8
    l: 0  eig: -0.438611  rCut: 1.8
    l: 1  eig: -1.894596  rCut: 1.8
    l: 1  eig: 0.500000  rCut: 1.8
    l: 2  eig: -0.583118  rCut: 1.8
    l: 2  eig: 0.150000  rCut: 1.8
  Partial core density with radius 0.8
  Transforming core density to a uniform radial grid of dG=0.02 with 1464 points.
  Transforming local potential to a uniform radial grid of dG=0.02 with 1464 points.
  Transforming nonlocal projectors to a uniform radial grid of dG=0.02 with 432 points.
  Transforming density augmentations to a uniform radial grid of dG=0.02 with 1464 points.
  Transforming atomic orbitals to a uniform radial grid of dG=0.02 with 432 points.
  Core radius for overlap checks: 1.80 bohrs.

Reading pseudopotential file '/projects/musgravc/apps/jdftx-1.6.0/build/pseudopotentials/GBRV_v1.5/o_pbe_v1.2.uspp':
  Title: O.  Created by USPP 7.3.6 on 3-2-2014
  Reference state energy: -15.894388.  6 valence electrons in orbitals:
    |200>  occupation: 2  eigenvalue: -0.878823
    |210>  occupation: 4  eigenvalue: -0.332131
  lMax: 2  lLocal: 2  QijEcut: 6
  5 projectors sampled on a log grid with 511 points:
    l: 0  eig: -0.878823  rCut: 1.25
    l: 0  eig: 0.000000  rCut: 1.25
    l: 1  eig: -0.332132  rCut: 1.25
    l: 1  eig: 0.000000  rCut: 1.25
    l: 2  eig: 1.000000  rCut: 1.25
  Partial core density with radius 0.7
  Transforming core density to a uniform radial grid of dG=0.02 with 1464 points.
  Transforming local potential to a uniform radial grid of dG=0.02 with 1464 points.
  Transforming nonlocal projectors to a uniform radial grid of dG=0.02 with 432 points.
  Transforming density augmentations to a uniform radial grid of dG=0.02 with 1464 points.
  Transforming atomic orbitals to a uniform radial grid of dG=0.02 with 432 points.
  Core radius for overlap checks: 1.25 bohrs.

Initialized 4 species with 51 total atoms.

Folded 1 k-points by 3x3x1 to 9 k-points.

---------- Setting up k-points, bands, fillings ----------
No reducable k-points. 
Computing the number of bands and number of electrons
Calculating initial fillings.
nElectrons: 218.000000   nBands: 131   nStates: 18

----- Setting up reduced wavefunction bases (one per k-point) -----
average nbasis = 86412.556 , ideal nbasis = 86404.907

----- Initializing Supercell corresponding to k-point mesh -----
Lattice vector linear combinations in supercell:
[   3   0   0  ]
[   0   3   0  ]
[   0   0   1  ]
Supercell lattice vectors:
[  70.3088  -35.2004  0  ]
[  0.053982  59.8255  0  ]
[  0  0  43.2563  ]

Initializing DFT-D3 calculator:
	Parameters set for gga-PBE functional
	s6:  1.000  s_r6:  1.217
	s8:  0.722  s_r8:  1.000
	Per-atom parameters loaded for:
	 C:  sqrtQ[a0]:  3.105  Rcov[a0]:  1.417  CN: [ 0.00 0.99 2.00 3.00 3.98 ]
	 N:  sqrtQ[a0]:  2.712  Rcov[a0]:  1.342  CN: [ 0.00 0.99 2.01 2.99 ]
	Ti:  sqrtQ[a0]:  6.288  Rcov[a0]:  2.305  CN: [ 0.00 1.83 3.87 ]
	 O:  sqrtQ[a0]:  2.594  Rcov[a0]:  1.191  CN: [ 0.00 0.99 1.99 ]

Initializing DFT-D2 calculator for fluid / solvation:
	 C:  C6:   30.35 Eh-a0^6  R0: 2.744 a0
	 N:  C6:   21.33 Eh-a0^6  R0: 2.640 a0
	Ti:  C6:  187.33 Eh-a0^6  R0: 2.952 a0
	 O:  C6:   12.14 Eh-a0^6  R0: 2.536 a0

---------- Setting up ewald sum ----------
Optimum gaussian width for ewald sums = 5.644362 bohr.
Real space sum over 567 unit cells with max indices [  4  4  3  ]
Reciprocal space sum over 7803 terms with max indices [  8  8  13  ]

Computing DFT-D3 correction:
# coordination-number C 3.298 3.320 3.331 3.329 3.310 3.286 3.322 3.616 3.325 3.310 3.297 3.312 3.300 3.299 3.320 3.507 3.262 3.298 3.317 3.332 3.326 3.298 3.299 3.325 3.331 3.317 3.298 3.262 3.618 3.320 3.298 3.298 3.323 3.298 3.310 3.326 3.508 3.313 3.286 3.310 3.329 3.332 3.320 3.297 1.120
# coordination-number N 3.175 3.165 3.175 3.164
# coordination-number Ti 5.428
# coordination-number O 1.003
# diagonal-C6 C 24.30 24.08 23.96 23.99 24.18 24.41 24.06 20.09 24.03 24.18 24.31 24.16 24.28 24.30 24.08 21.53 24.61 24.31 24.11 23.96 24.02 24.30 24.29 24.03 23.96 24.11 24.30 24.61 20.07 24.08 24.31 24.30 24.05 24.30 24.18 24.02 21.52 24.15 24.41 24.19 23.99 23.96 24.08 24.31 42.57
# diagonal-C6 N 15.60 15.60 15.60 15.60
# diagonal-C6 Ti 321.59
# diagonal-C6 O 12.81
EvdW_6 =   -0.037584
EvdW_8 =   -0.030191

---------- Allocating electronic variables ----------
Initializing wave functions:  linear combination of atomic orbitals
C pseudo-atom occupations:   s ( 2 )  p ( 2 )
N pseudo-atom occupations:   s ( 2 )  p ( 3 )
Ti pseudo-atom occupations:   s ( 2 0 )  p ( 6 )  d ( 4 )
O pseudo-atom occupations:   s ( 2 )  p ( 4 )
	FillingsUpdate:  mu: -0.145500000  nElectrons: 218.000000  magneticMoment: [ Abs: 0.00440  Tot: +0.00001 ]
LCAOMinimize: Iter:   0  G: -334.9254631456856828  |grad|_K:  2.886e-03  alpha:  1.000e+00
	FillingsUpdate:  mu: -0.145500000  nElectrons: 218.000000  magneticMoment: [ Abs: 0.00433  Tot: +0.00000 ]
LCAOMinimize: Iter:   1  G: -335.2300009958183296  |grad|_K:  1.830e-03  alpha:  6.688e-02  linmin: -1.179e-01  cgtest:  1.297e+00  t[s]:    296.61
LCAOMinimize: Encountered beta<0, resetting CG.
LCAOMinimize: 	Predicted alpha/alphaT>3.000000, increasing alphaT to 2.006345e-01.
	FillingsUpdate:  mu: -0.145500000  nElectrons: 218.000000  magneticMoment: [ Abs: 0.00426  Tot: -0.00000 ]
LCAOMinimize: Iter:   2  G: -335.8511433607878303  |grad|_K:  1.453e-03  alpha:  3.460e-01  linmin: -1.035e-01  cgtest:  1.889e-01  t[s]:    445.80
	FillingsUpdate:  mu: -0.145500000  nElectrons: 218.000000  magneticMoment: [ Abs: 0.00426  Tot: -0.00000 ]
LCAOMinimize: Iter:   3  G: -335.8717474636723068  |grad|_K:  1.463e-03  alpha:  7.500e-03  linmin: -1.444e-01  cgtest:  9.694e-01  t[s]:    564.70
LCAOMinimize: 	Wrong curvature in test step, increasing alphaT to 2.249898e-02.
	FillingsUpdate:  mu: -0.145500000  nElectrons: 218.000000  magneticMoment: [ Abs: 0.00426  Tot: -0.00000 ]
LCAOMinimize: Iter:   4  G: -335.8855076315879273  |grad|_K:  1.461e-03  alpha: -4.703e-01  linmin: -1.753e-01  cgtest:  9.810e-01  t[s]:    681.07
	FillingsUpdate:  mu: -0.145500000  nElectrons: 218.000000  magneticMoment: [ Abs: 0.00427  Tot: -0.00002 ]
LCAOMinimize: Iter:   5  G: -335.9488908698031651  |grad|_K:  1.519e-03  alpha:  3.386e-02  linmin: -1.378e-01  cgtest:  8.723e-01  t[s]:    800.36
LCAOMinimize: 	Wrong curvature in test step, increasing alphaT to 1.015807e-01.
	FillingsUpdate:  mu: -0.145500000  nElectrons: 218.000000  magneticMoment: [ Abs: 0.00430  Tot: -0.00013 ]
LCAOMinimize: Iter:   6  G: -336.0322246387906375  |grad|_K:  1.442e-03  alpha: -1.506e-01  linmin: -1.519e-01  cgtest:  8.573e-01  t[s]:    916.80
	FillingsUpdate:  mu: -0.145500000  nElectrons: 218.000000  magneticMoment: [ Abs: 0.00438  Tot: -0.00021 ]
LCAOMinimize: Iter:   7  G: -336.1166652190708533  |grad|_K:  1.502e-03  alpha:  4.621e-02  linmin: -8.001e-02  cgtest:  6.812e-01  t[s]:   1035.51
LCAOMinimize: 	Wrong curvature in test step, increasing alphaT to 1.386300e-01.
	FillingsUpdate:  mu: -0.145500000  nElectrons: 218.000000  magneticMoment: [ Abs: 0.00435  Tot: -0.00021 ]
LCAOMinimize: Iter:   8  G: -336.2398081185841647  |grad|_K:  1.369e-03  alpha: -2.586e-01  linmin: -2.016e-01  cgtest:  7.401e-01  t[s]:   1152.50
	FillingsUpdate:  mu: -0.145500000  nElectrons: 218.000000  magneticMoment: [ Abs: 0.00434  Tot: -0.00013 ]
LCAOMinimize: Iter:   9  G: -336.3434340102843407  |grad|_K:  1.257e-03  alpha:  4.698e-02  linmin: -1.967e-01  cgtest:  7.180e-01  t[s]:   1271.69
LCAOMinimize: 	Predicted alpha/alphaT>3.000000, increasing alphaT to 1.409512e-01.
	FillingsUpdate:  mu: -0.145500000  nElectrons: 218.000000  magneticMoment: [ Abs: 0.00436  Tot: -0.00008 ]
LCAOMinimize: Iter:  10  G: -336.3722796697265380  |grad|_K:  1.192e-03  alpha:  1.585e-02  linmin: -1.955e-01  cgtest:  8.507e-01  t[s]:   1415.62
LCAOMinimize: 	Wrong curvature in test step, increasing alphaT to 4.756385e-02.
	FillingsUpdate:  mu: -0.145500000  nElectrons: 218.000000  magneticMoment: [ Abs: 0.00439  Tot: -0.00004 ]
LCAOMinimize: Iter:  11  G: -336.3945249219700031  |grad|_K:  1.094e-03  alpha: -1.226e-01  linmin: -1.991e-01  cgtest:  8.438e-01  t[s]:   1526.75
	FillingsUpdate:  mu: -0.145500000  nElectrons: 218.000000  magneticMoment: [ Abs: 0.00447  Tot: +0.00013 ]
LCAOMinimize: Iter:  12  G: -336.4232448338925678  |grad|_K:  6.510e-04  alpha:  4.530e-02  linmin:  1.564e-01  cgtest: -3.279e-01  t[s]:   1639.09
LCAOMinimize: 	Bad step direction: g.d > 0.
LCAOMinimize: 	Undoing step.
LCAOMinimize: 	Step failed: resetting search direction.
	FillingsUpdate:  mu: -0.145500000  nElectrons: 218.000000  magneticMoment: [ Abs: 0.00447  Tot: +0.00013 ]
LCAOMinimize: Iter:  13  G: -336.4232448338925678  |grad|_K:  6.510e-04  alpha:  0.000e+00
	FillingsUpdate:  mu: -0.145500000  nElectrons: 218.000000  magneticMoment: [ Abs: 0.00449  Tot: +0.00010 ]
LCAOMinimize: Iter:  14  G: -336.4291579959517549  |grad|_K:  3.201e-04  alpha:  3.605e-02  linmin: -3.359e-03  cgtest: -6.168e-02  t[s]:   1834.85
LCAOMinimize: 	Predicted alpha/alphaT>3.000000, increasing alphaT to 1.081375e-01.
	FillingsUpdate:  mu: -0.145500000  nElectrons: 218.000000  magneticMoment: [ Abs: 0.00472  Tot: +0.00030 ]
LCAOMinimize: Iter:  15  G: -336.4365969874565394  |grad|_K:  8.678e-05  alpha:  1.799e-01  linmin:  6.273e-03  cgtest:  1.544e-01  t[s]:   1977.99
	FillingsUpdate:  mu: -0.145500000  nElectrons: 218.000000  magneticMoment: [ Abs: 0.00494  Tot: +0.00049 ]
LCAOMinimize: Iter:  16  G: -336.4368302798251307  |grad|_K:  1.102e-04  alpha:  8.479e-02  linmin: -7.730e-03  cgtest:  1.251e-01  t[s]:   2090.25
	FillingsUpdate:  mu: -0.145500000  nElectrons: 218.000000  magneticMoment: [ Abs: 0.00575  Tot: +0.00115 ]
LCAOMinimize: Iter:  17  G: -336.4375644262483434  |grad|_K:  6.388e-05  alpha:  1.298e-01  linmin: -1.294e-02  cgtest: -4.113e-01  t[s]:   2203.02
	FillingsUpdate:  mu: -0.145500000  nElectrons: 218.000000  magneticMoment: [ Abs: 0.00659  Tot: +0.00185 ]
LCAOMinimize: Iter:  18  G: -336.4376900253221265  |grad|_K:  4.956e-05  alpha:  6.930e-02  linmin: -1.132e-02  cgtest: -8.329e-02  t[s]:   2315.63
	FillingsUpdate:  mu: -0.145500000  nElectrons: 218.000000  magneticMoment: [ Abs: 0.00831  Tot: +0.00321 ]
LCAOMinimize: Iter:  19  G: -336.4378124286692469  |grad|_K:  2.688e-05  alpha:  9.188e-02  linmin: -3.512e-02  cgtest:  2.151e-01  t[s]:   2428.04
	FillingsUpdate:  mu: -0.145500000  nElectrons: 218.000000  magneticMoment: [ Abs: 0.01046  Tot: +0.00491 ]
LCAOMinimize: Iter:  20  G: -336.4378430653381997  |grad|_K:  2.415e-05  alpha:  8.805e-02  linmin: -2.941e-02  cgtest:  2.732e-01  t[s]:   2540.67
	FillingsUpdate:  mu: -0.145500000  nElectrons: 218.000000  magneticMoment: [ Abs: 0.01343  Tot: +0.00718 ]
LCAOMinimize: Iter:  21  G: -336.4378644256497637  |grad|_K:  1.988e-05  alpha:  6.972e-02  linmin: -4.123e-03  cgtest: -3.941e-01  t[s]:   2652.38
	FillingsUpdate:  mu: -0.145500000  nElectrons: 218.000000  magneticMoment: [ Abs: 0.01778  Tot: +0.01047 ]
LCAOMinimize: Iter:  22  G: -336.4378712451875799  |grad|_K:  1.345e-05  alpha:  4.752e-02  linmin: -2.111e-02  cgtest:  8.817e-01  t[s]:   2764.41
LCAOMinimize: Encountered beta<0, resetting CG.
	FillingsUpdate:  mu: -0.145500000  nElectrons: 218.000000  magneticMoment: [ Abs: 0.01995  Tot: +0.01212 ]
LCAOMinimize: Iter:  23  G: -336.4378731303779659  |grad|_K:  9.111e-06  alpha:  3.108e-02  linmin: -4.543e-02  cgtest:  4.666e-01  t[s]:   2876.92
LCAOMinimize: 	Wrong curvature in test step, increasing alphaT to 9.324290e-02.
	FillingsUpdate:  mu: -0.145500000  nElectrons: 218.000000  magneticMoment: [ Abs: 0.02268  Tot: +0.01415 ]
LCAOMinimize: Iter:  24  G: -336.4378757318569910  |grad|_K:  9.472e-06  alpha: -1.072e-01  linmin: -8.213e-02  cgtest:  9.897e-01  t[s]:   2987.35
LCAOMinimize: 	Wrong curvature in test step, increasing alphaT to 3.000000e+00.
	FillingsUpdate:  mu: -0.145500000  nElectrons: 218.000000  magneticMoment: [ Abs: 0.11740  Tot: +0.08217 ]
LCAOMinimize: Iter:  25  G: -336.4380212355088702  |grad|_K:  5.591e-05  alpha: -5.442e-01  linmin: -3.427e-02  cgtest:  4.592e-01  t[s]:   3097.03
	FillingsUpdate:  mu: -0.145500000  nElectrons: 218.000000  magneticMoment: [ Abs: 0.30313  Tot: +0.21996 ]
LCAOMinimize: Iter:  26  G: -336.4386021803614994  |grad|_K:  1.210e-04  alpha:  5.772e-02  linmin: -2.062e-02  cgtest:  1.756e-01  t[s]:   3209.42
	FillingsUpdate:  mu: -0.145500000  nElectrons: 218.000000  magneticMoment: [ Abs: 0.34424  Tot: +0.25256 ]
LCAOMinimize: Iter:  27  G: -336.4386918272602998  |grad|_K:  1.521e-04  alpha:  3.201e-03  linmin: -1.256e-02  cgtest:  1.034e+00  t[s]:   3321.89
LCAOMinimize: 	Predicted alpha/alphaT>3.000000, increasing alphaT to 9.604261e-03.
LCAOMinimize: 	Predicted alpha/alphaT>3.000000, increasing alphaT to 2.881278e-02.
	FillingsUpdate:  mu: -0.145500000  nElectrons: 218.000000  magneticMoment: [ Abs: 0.50701  Tot: +0.38841 ]
LCAOMinimize: Iter:  28  G: -336.4393543460189449  |grad|_K:  2.012e-04  alpha:  5.331e-02  linmin: -1.668e-03  cgtest:  1.176e+00  t[s]:   3492.18
	FillingsUpdate:  mu: -0.145500000  nElectrons: 218.000000  magneticMoment: [ Abs: 0.50496  Tot: +0.37586 ]
LCAOMinimize: Iter:  29  G: -336.4399810015172534  |grad|_K:  1.110e-04  alpha:  3.884e-02  linmin:  1.746e-03  cgtest: -9.099e-02  t[s]:   3604.83
LCAOMinimize: 	Predicted alpha/alphaT>3.000000, increasing alphaT to 1.165051e-01.
	FillingsUpdate:  mu: -0.145500000  nElectrons: 218.000000  magneticMoment: [ Abs: 0.71188  Tot: +0.58893 ]
LCAOMinimize: Iter:  30  G: -336.4410103390281961  |grad|_K:  1.788e-04  alpha:  3.060e-01  linmin:  2.192e-02  cgtest: -3.624e-01  t[s]:   3746.25
LCAOMinimize: None of the convergence criteria satisfied after 30 iterations.
----- createFluidSolver() ----- (Fluid-side solver setup)
   Initializing fluid molecule 'H2O'
     Initializing site 'O'
       Electron density: proportional to exp(-r/0.36935)*erfc((r-0.51523)/0.36823) with norm 6.826
       Charge density: gaussian nuclear width 0.478731 with net site charge 0.826
       Polarizability: cuspless exponential with width 0.32 and norm 3.73
       Hard sphere radius: 2.57003 bohrs
       Positions in reference frame:
         [ +0.000000 +0.000000 +0.000000 ]
     Initializing site 'H'
       Electron density: proportional to exp(-r/0.34641)*erfc((r-0)/0.390882) with norm 0.587
       Charge density: gaussian nuclear width 0.377945 with net site charge -0.413
       Polarizability: cuspless exponential with width 0.39 and norm 3.3
       Positions in reference frame:
         [ +0.000000 -1.441945 +1.122523 ]
         [ +0.000000 +1.441945 +1.122523 ]
     Net charge: 0   dipole magnitude: 0.927204
     Initializing spherical shell mfKernel with radius 2.61727 Bohr
     deltaS corrections:
       site 'O': -7.54299
       site 'H': -6.83917
   Initializing fluid molecule 'Na+'
     Initializing site 'Na'
       Electron density: proportional to exp(-r/0.19682)*erfc((r-0.71491)/0.41314) with norm 8.1383
       Charge density: gaussian nuclear width 0.365347 with net site charge -1
       Hard sphere radius: 1.86327 bohrs
       Positions in reference frame:
         [ +0.000000 +0.000000 +0.000000 ]
     Net charge: -1   dipole magnitude: 0
     Initializing gaussian mfKernel with width: 1.55004 Bohr
     deltaS corrections:
       site 'Na': -22.3555
   Initializing fluid molecule 'F-'
     Initializing site 'F'
       Electron density: proportional to exp(-r/0.38886)*erfc((r-0)/0.438782) with norm 8
       Charge density: gaussian nuclear width 0.374796 with net site charge 1
       Hard sphere radius: 2.39995 bohrs
       Positions in reference frame:
         [ +0.000000 +0.000000 +0.000000 ]
     Net charge: 1   dipole magnitude: 0
     Initializing gaussian mfKernel with width: 1.59012 Bohr
     deltaS corrections:
       site 'F': -9.04335

Correction to mu due to finite nuclear width = -0.0106944
   Cavity determined by nc: 0.00142 and sigma: 0.707107
   Nonlocal vdW cavity from gaussian model electron density with norm = 8 and sigma = 0.993594 bohr
   Charge asymmetry in cavity with sensitivity pCavity = 36.5 e-bohr/Eh
   Electrostatic cavity expanded by eta = 1.46 bohrs
   Weighted density cavitation model constrained by Nbulk: 0.0049383 bohr^-3, Pvap: 3.14029 kPa, Rvdw: 2.61727 bohr and sigmaBulk: 4.62e-05 Eh/bohr^2 at T: 298 K.
   Weighted density dispersion model using vdW pair potentials with single solvent site with sqrtC6eff: 0.77 SI.


---- Citations for features of the code used in this run ----

   Software package:
      R. Sundararaman, K. Letchworth-Weaver, K.A. Schwarz, D. Gunceler, Y. Ozhabes and T.A. Arias, 'JDFTx: software for joint density-functional theory', SoftwareX 6, 278 (2017)

   gga-PBE exchange-correlation functional:
      J.P. Perdew, K. Burke and M. Ernzerhof, Phys. Rev. Lett. 77, 3865 (1996)

   Pseudopotentials:
      KF Garrity, JW Bennett, KM Rabe and D Vanderbilt, Comput. Mater. Sci. 81, 446 (2014)

   DFT-D3 dispersion correction:
      S. Grimme, J. Antony, S. Ehrlich and H. Krieg, J. Chem. Phys. 132, 154104 (2010)

   DFT-D2 dispersion correction:
      S. Grimme, J. Comput. Chem. 27, 1787 (2006)

   Charge-asymmetric nonlocally-determined local-electric (CANDLE) solvation model:
      R. Sundararaman and W.A. Goddard III, J. Chem. Phys. 142, 064107 (2015)

   Total energy minimization with Auxiliary Hamiltonian:
      C. Freysoldt, S. Boeck, and J. Neugebauer, Phys. Rev. B 79, 241103(R) (2009)

   Grand-canonical (fixed-potential) DFT:
      R. Sundararaman, W. A. Goddard III and T. A. Arias, J. Chem. Phys. 146, 114104 (2017)

   Linear-tetrahedron sampling for density of states:
      G. Lehmann and M. Taut, Phys. status solidi (b) 54, 469 (1972)

This list may not be complete. Please suggest additional citations or
report any other bugs at https://github.com/shankar1729/jdftx/issues

Initialization completed successfully at t[s]:   3761.06


Computing DFT-D3 correction:
# coordination-number C 3.298 3.320 3.331 3.329 3.310 3.286 3.322 3.616 3.325 3.310 3.297 3.312 3.300 3.299 3.320 3.507 3.262 3.298 3.317 3.332 3.326 3.298 3.299 3.325 3.331 3.317 3.298 3.262 3.618 3.320 3.298 3.298 3.323 3.298 3.310 3.326 3.508 3.313 3.286 3.310 3.329 3.332 3.320 3.297 1.120
# coordination-number N 3.175 3.165 3.175 3.164
# coordination-number Ti 5.428
# coordination-number O 1.003
# diagonal-C6 C 24.30 24.08 23.96 23.99 24.18 24.41 24.06 20.09 24.03 24.18 24.31 24.16 24.28 24.30 24.08 21.53 24.61 24.31 24.11 23.96 24.02 24.30 24.29 24.03 23.96 24.11 24.30 24.61 20.07 24.08 24.31 24.30 24.05 24.30 24.18 24.02 21.52 24.15 24.41 24.19 23.99 23.96 24.08 24.31 42.57
# diagonal-C6 N 15.60 15.60 15.60 15.60
# diagonal-C6 Ti 321.59
# diagonal-C6 O 12.81
EvdW_6 =   -0.037584
EvdW_8 =   -0.030191
Fluid solver invoked on fresh (random / LCAO) wavefunctions
Running a vacuum solve first:

-------- Initial electronic minimization -----------
	FillingsUpdate:  mu: -0.173822347  nElectrons: 218.000000  magneticMoment: [ Abs: 0.71188  Tot: +0.58893 ]
ElecMinimize: Iter:   0  G: -336.441009041294762  |grad|_K:  1.442e-04  alpha:  1.000e+00
	FillingsUpdate:  mu: -0.141429514  nElectrons: 218.000000  magneticMoment: [ Abs: 0.35885  Tot: +0.11578 ]
	SubspaceRotationAdjust: set factor to 0.578
ElecMinimize: Iter:   1  G: -339.134971560338045  |grad|_K:  1.301e-04  alpha:  6.543e-01  linmin:  4.604e-04  t[s]:   3938.99
	FillingsUpdate:  mu: -0.043722333  nElectrons: 218.000000  magneticMoment: [ Abs: 1.17415  Tot: +0.98267 ]
	SubspaceRotationAdjust: set factor to 0.25
ElecMinimize: Iter:   2  G: -339.334628827105234  |grad|_K:  4.676e-05  alpha:  7.414e-02  linmin:  2.171e-03  t[s]:   4047.29
ElecMinimize: 	Predicted alpha/alphaT>3.000000, increasing alphaT to 2.224187e-01.
	FillingsUpdate:  mu: -0.142461284  nElectrons: 218.000000  magneticMoment: [ Abs: 0.88869  Tot: +0.69310 ]
	SubspaceRotationAdjust: set factor to 0.112
	SubspaceRotationAdjust: resetting CG because factor has changed by 0.111776
ElecMinimize: 	State modified externally: resetting search direction.
ElecMinimize: Iter:   3  G: -339.495307288485492  |grad|_K:  3.787e-05  alpha:  5.162e-01
	FillingsUpdate:  mu: -0.060451123  nElectrons: 218.000000  magneticMoment: [ Abs: 1.13422  Tot: +0.94037 ]
	SubspaceRotationAdjust: set factor to 0.216
ElecMinimize: Iter:   4  G: -339.567440373934119  |grad|_K:  1.493e-05  alpha:  3.103e-01  linmin:  8.233e-04  t[s]:   4353.97
	FillingsUpdate:  mu: -0.063746287  nElectrons: 218.000000  magneticMoment: [ Abs: 1.17604  Tot: +0.97821 ]
	SubspaceRotationAdjust: set factor to 0.216
ElecMinimize: Iter:   5  G: -339.595832964604028  |grad|_K:  1.000e-05  alpha:  6.361e-01  linmin:  5.954e-05  t[s]:   4462.35
	FillingsUpdate:  mu: -0.056940639  nElectrons: 218.000000  magneticMoment: [ Abs: 1.27316  Tot: +1.06927 ]
	SubspaceRotationAdjust: set factor to 0.203
ElecMinimize: Iter:   6  G: -339.610244555302870  |grad|_K:  7.274e-06  alpha:  7.112e-01  linmin:  4.807e-05  t[s]:   4571.20
	FillingsUpdate:  mu: -0.069311310  nElectrons: 218.000000  magneticMoment: [ Abs: 1.25096  Tot: +1.03103 ]
	SubspaceRotationAdjust: set factor to 0.133
ElecMinimize: Iter:   7  G: -339.615252593638104  |grad|_K:  4.218e-06  alpha:  4.669e-01  linmin:  1.642e-06  t[s]:   4680.33
	FillingsUpdate:  mu: -0.058543529  nElectrons: 218.000000  magneticMoment: [ Abs: 1.34128  Tot: +1.12960 ]
	SubspaceRotationAdjust: set factor to 0.0937
ElecMinimize: Iter:   8  G: -339.617596794171391  |grad|_K:  2.495e-06  alpha:  6.573e-01  linmin:  1.569e-04  t[s]:   4789.34
	FillingsUpdate:  mu: -0.062233600  nElectrons: 218.000000  magneticMoment: [ Abs: 1.36968  Tot: +1.15567 ]
	SubspaceRotationAdjust: set factor to 0.0969
ElecMinimize: Iter:   9  G: -339.618828909594924  |grad|_K:  2.375e-06  alpha:  1.010e+00  linmin: -2.392e-05  t[s]:   4898.33
	FillingsUpdate:  mu: -0.061161894  nElectrons: 218.000000  magneticMoment: [ Abs: 1.40853  Tot: +1.19725 ]
	SubspaceRotationAdjust: set factor to 0.109
ElecMinimize: Iter:  10  G: -339.619568585545551  |grad|_K:  1.600e-06  alpha:  6.255e-01  linmin:  5.695e-07  t[s]:   5006.99
	FillingsUpdate:  mu: -0.062765658  nElectrons: 218.000000  magneticMoment: [ Abs: 1.45109  Tot: +1.24367 ]
	SubspaceRotationAdjust: set factor to 0.12
ElecMinimize: Iter:  11  G: -339.620089161484486  |grad|_K:  1.431e-06  alpha:  1.001e+00  linmin:  1.656e-05  t[s]:   5116.12
	FillingsUpdate:  mu: -0.061804915  nElectrons: 218.000000  magneticMoment: [ Abs: 1.49379  Tot: +1.28919 ]
	SubspaceRotationAdjust: set factor to 0.132
ElecMinimize: Iter:  12  G: -339.620448260324054  |grad|_K:  1.311e-06  alpha:  8.676e-01  linmin:  9.298e-06  t[s]:   5225.22
	FillingsUpdate:  mu: -0.062789766  nElectrons: 218.000000  magneticMoment: [ Abs: 1.51880  Tot: +1.31406 ]
	SubspaceRotationAdjust: set factor to 0.151
ElecMinimize: Iter:  13  G: -339.620665494887930  |grad|_K:  9.211e-07  alpha:  6.259e-01  linmin:  1.197e-06  t[s]:   5334.14
	FillingsUpdate:  mu: -0.062552993  nElectrons: 218.000000  magneticMoment: [ Abs: 1.55062  Tot: +1.34625 ]
	SubspaceRotationAdjust: set factor to 0.175
ElecMinimize: Iter:  14  G: -339.620820675053039  |grad|_K:  8.132e-07  alpha:  8.991e-01  linmin:  1.391e-05  t[s]:   5442.99
	FillingsUpdate:  mu: -0.062219231  nElectrons: 218.000000  magneticMoment: [ Abs: 1.58254  Tot: +1.37782 ]
	SubspaceRotationAdjust: set factor to 0.199
ElecMinimize: Iter:  15  G: -339.620933348030405  |grad|_K:  7.601e-07  alpha:  8.408e-01  linmin:  1.258e-05  t[s]:   5551.88
	FillingsUpdate:  mu: -0.063518291  nElectrons: 218.000000  magneticMoment: [ Abs: 1.60475  Tot: +1.39817 ]
	SubspaceRotationAdjust: set factor to 0.203
ElecMinimize: Iter:  16  G: -339.621015283811005  |grad|_K:  6.388e-07  alpha:  6.984e-01  linmin:  1.107e-05  t[s]:   5660.98
	FillingsUpdate:  mu: -0.062366530  nElectrons: 218.000000  magneticMoment: [ Abs: 1.63255  Tot: +1.42420 ]
	SubspaceRotationAdjust: set factor to 0.191
ElecMinimize: Iter:  17  G: -339.621069408801588  |grad|_K:  5.531e-07  alpha:  6.515e-01  linmin:  1.682e-05  t[s]:   5769.99
	FillingsUpdate:  mu: -0.063313568  nElectrons: 218.000000  magneticMoment: [ Abs: 1.64863  Tot: +1.43709 ]
	SubspaceRotationAdjust: set factor to 0.187
ElecMinimize: Iter:  18  G: -339.621111880697072  |grad|_K:  4.721e-07  alpha:  6.837e-01  linmin:  4.111e-06  t[s]:   5879.03
	FillingsUpdate:  mu: -0.062897454  nElectrons: 218.000000  magneticMoment: [ Abs: 1.66416  Tot: +1.44968 ]
	SubspaceRotationAdjust: set factor to 0.205
ElecMinimize: Iter:  19  G: -339.621140142795298  |grad|_K:  3.436e-07  alpha:  6.231e-01  linmin:  3.130e-06  t[s]:   5987.90
	FillingsUpdate:  mu: -0.063042359  nElectrons: 218.000000  magneticMoment: [ Abs: 1.67342  Tot: +1.45627 ]
	SubspaceRotationAdjust: set factor to 0.237
ElecMinimize: Iter:  20  G: -339.621158541612260  |grad|_K:  2.631e-07  alpha:  7.655e-01  linmin:  2.492e-06  t[s]:   6096.86
	FillingsUpdate:  mu: -0.063201355  nElectrons: 218.000000  magneticMoment: [ Abs: 1.67932  Tot: +1.45996 ]
	SubspaceRotationAdjust: set factor to 0.27
ElecMinimize: Iter:  21  G: -339.621170250875707  |grad|_K:  2.261e-07  alpha:  8.307e-01  linmin:  3.469e-06  t[s]:   6205.83
	FillingsUpdate:  mu: -0.062839543  nElectrons: 218.000000  magneticMoment: [ Abs: 1.68382  Tot: +1.46290 ]
	SubspaceRotationAdjust: set factor to 0.264
ElecMinimize: Iter:  22  G: -339.621176927168563  |grad|_K:  2.043e-07  alpha:  6.420e-01  linmin:  3.329e-06  t[s]:   6314.94
	FillingsUpdate:  mu: -0.063282589  nElectrons: 218.000000  magneticMoment: [ Abs: 1.68326  Tot: +1.46143 ]
	SubspaceRotationAdjust: set factor to 0.21
ElecMinimize: Iter:  23  G: -339.621180512558624  |grad|_K:  1.525e-07  alpha:  4.216e-01  linmin:  2.090e-06  t[s]:   6423.83
	FillingsUpdate:  mu: -0.063054352  nElectrons: 218.000000  magneticMoment: [ Abs: 1.68464  Tot: +1.46197 ]
	SubspaceRotationAdjust: set factor to 0.213
ElecMinimize: Iter:  24  G: -339.621183410916444  |grad|_K:  1.147e-07  alpha:  6.125e-01  linmin:  8.932e-06  t[s]:   6532.80
	FillingsUpdate:  mu: -0.063067151  nElectrons: 218.000000  magneticMoment: [ Abs: 1.68424  Tot: +1.46109 ]
	SubspaceRotationAdjust: set factor to 0.253
ElecMinimize: Iter:  25  G: -339.621185226014120  |grad|_K:  8.818e-08  alpha:  6.811e-01  linmin:  5.771e-06  t[s]:   6641.66
	FillingsUpdate:  mu: -0.063127340  nElectrons: 218.000000  magneticMoment: [ Abs: 1.68304  Tot: +1.45966 ]
	SubspaceRotationAdjust: set factor to 0.283
ElecMinimize: Iter:  26  G: -339.621186328023725  |grad|_K:  6.996e-08  alpha:  6.971e-01  linmin:  3.543e-06  t[s]:   6751.44
	FillingsUpdate:  mu: -0.062978263  nElectrons: 218.000000  magneticMoment: [ Abs: 1.68258  Tot: +1.45916 ]
	SubspaceRotationAdjust: set factor to 0.277
ElecMinimize: Iter:  27  G: -339.621186953234655  |grad|_K:  6.780e-08  alpha:  6.273e-01  linmin:  1.969e-06  t[s]:   6860.47
	FillingsUpdate:  mu: -0.063107031  nElectrons: 218.000000  magneticMoment: [ Abs: 1.68108  Tot: +1.45770 ]
	SubspaceRotationAdjust: set factor to 0.249
ElecMinimize: Iter:  28  G: -339.621187365209948  |grad|_K:  5.451e-08  alpha:  4.398e-01  linmin:  1.090e-07  t[s]:   6969.58
	FillingsUpdate:  mu: -0.063038334  nElectrons: 218.000000  magneticMoment: [ Abs: 1.68012  Tot: +1.45688 ]
	SubspaceRotationAdjust: set factor to 0.283
ElecMinimize: Iter:  29  G: -339.621187749016997  |grad|_K:  3.882e-08  alpha:  6.336e-01  linmin:  1.080e-06  t[s]:   7078.79
	FillingsUpdate:  mu: -0.063055162  nElectrons: 218.000000  magneticMoment: [ Abs: 1.67896  Tot: +1.45592 ]
	SubspaceRotationAdjust: set factor to 0.344
ElecMinimize: Iter:  30  G: -339.621187993253614  |grad|_K:  3.059e-08  alpha:  7.955e-01  linmin: -2.107e-07  t[s]:   7188.65
	FillingsUpdate:  mu: -0.063056024  nElectrons: 218.000000  magneticMoment: [ Abs: 1.67810  Tot: +1.45531 ]
	SubspaceRotationAdjust: set factor to 0.419
ElecMinimize: Iter:  31  G: -339.621188149986608  |grad|_K:  2.607e-08  alpha:  8.210e-01  linmin:  1.177e-07  t[s]:   7302.16
	FillingsUpdate:  mu: -0.063024979  nElectrons: 218.000000  magneticMoment: [ Abs: 1.67765  Tot: +1.45510 ]
	SubspaceRotationAdjust: set factor to 0.455
ElecMinimize: Iter:  32  G: -339.621188245271185  |grad|_K:  2.386e-08  alpha:  6.873e-01  linmin: -9.278e-07  t[s]:   7414.34
	FillingsUpdate:  mu: -0.063073512  nElectrons: 218.000000  magneticMoment: [ Abs: 1.67716  Tot: +1.45475 ]
	SubspaceRotationAdjust: set factor to 0.365
ElecMinimize: Iter:  33  G: -339.621188285588687  |grad|_K:  2.359e-08  alpha:  3.470e-01  linmin: -4.575e-07  t[s]:   7526.33
ElecMinimize: Converged (|Delta G|<1.000000e-07 for 2 iters).
Setting wave functions to eigenvectors of Hamiltonian
Converging empty states (this may take a while): |deigs|: 6.062e-03
Vacuum energy after initial minimize, F = -339.621188285588687

Shifting auxilliary hamiltonian by -0.082426 to set nElectrons=218.000000

-------- Electronic minimization -----------
	Linear fluid (dielectric constant: 78.4, screening length: 8.12261 Bohr) occupying 0.717471 of unit cell:	Completed after 23 iterations at t[s]:   8094.68
	FillingsUpdate:  mu: -0.145500000  nElectrons: 218.000000  magneticMoment: [ Abs: 1.67974  Tot: +1.45752 ]
ElecMinimize: Iter:   0  G: -339.614937686658322  |grad|_K:  1.337e-05  alpha:  1.000e+00
	Linear fluid (dielectric constant: 78.4, screening length: 8.12261 Bohr) occupying 0.718789 of unit cell:	Completed after 23 iterations at t[s]:   8207.31
	Linear fluid (dielectric constant: 78.4, screening length: 8.12261 Bohr) occupying 0.717926 of unit cell:	Completed after 21 iterations at t[s]:   8256.26
	FillingsUpdate:  mu: -0.145500000  nElectrons: 217.582998  magneticMoment: [ Abs: 1.38231  Tot: +1.11470 ]
	SubspaceRotationAdjust: set factor to 0.221
ElecMinimize: Iter:   1  G: -339.618218459670572  |grad|_K:  1.399e-05  alpha:  2.069e-01  linmin:  6.654e-03  t[s]:   8304.58
	Linear fluid (dielectric constant: 78.4, screening length: 8.12261 Bohr) occupying 0.718490 of unit cell:	Completed after 15 iterations at t[s]:   8355.18
	Linear fluid (dielectric constant: 78.4, screening length: 8.12261 Bohr) occupying 0.718667 of unit cell:	Completed after 9 iterations at t[s]:   8396.48
	FillingsUpdate:  mu: -0.145500000  nElectrons: 217.469603  magneticMoment: [ Abs: 1.36771  Tot: +1.02374 ]
	SubspaceRotationAdjust: set factor to 0.2
ElecMinimize: Iter:   2  G: -339.626391986263172  |grad|_K:  4.100e-06  alpha:  2.870e-01  linmin: -3.950e-04  t[s]:   8444.60
	Linear fluid (dielectric constant: 78.4, screening length: 8.12261 Bohr) occupying 0.718977 of unit cell:	Completed after 11 iterations at t[s]:   8492.99
	Linear fluid (dielectric constant: 78.4, screening length: 8.12261 Bohr) occupying 0.719231 of unit cell:	Completed after 12 iterations at t[s]:   8536.49
	FillingsUpdate:  mu: -0.145500000  nElectrons: 217.449151  magneticMoment: [ Abs: 1.34954  Tot: +1.00415 ]
	SubspaceRotationAdjust: set factor to 0.248
ElecMinimize: Iter:   3  G: -339.628287395731320  |grad|_K:  2.394e-06  alpha:  5.319e-01  linmin: -8.166e-04  t[s]:   8584.62
	Linear fluid (dielectric constant: 78.4, screening length: 8.12261 Bohr) occupying 0.719716 of unit cell:	Completed after 13 iterations at t[s]:   8634.49
	Linear fluid (dielectric constant: 78.4, screening length: 8.12261 Bohr) occupying 0.719850 of unit cell:	Completed after 8 iterations at t[s]:   8674.83
	FillingsUpdate:  mu: -0.145500000  nElectrons: 217.442167  magneticMoment: [ Abs: 1.33988  Tot: +0.99765 ]
	SubspaceRotationAdjust: set factor to 0.224
ElecMinimize: Iter:   4  G: -339.629128522491442  |grad|_K:  1.763e-06  alpha:  6.822e-01  linmin: -5.247e-04  t[s]:   8723.18
	Linear fluid (dielectric constant: 78.4, screening length: 8.12261 Bohr) occupying 0.720307 of unit cell:	Completed after 11 iterations at t[s]:   8771.49
	Linear fluid (dielectric constant: 78.4, screening length: 8.12261 Bohr) occupying 0.720262 of unit cell:	Completed after 7 iterations at t[s]:   8811.42
	FillingsUpdate:  mu: -0.145500000  nElectrons: 217.416054  magneticMoment: [ Abs: 1.30073  Tot: +0.97215 ]
	SubspaceRotationAdjust: set factor to 0.165
ElecMinimize: Iter:   5  G: -339.629564560321910  |grad|_K:  1.623e-06  alpha:  6.143e-01  linmin:  1.527e-03  t[s]:   8859.64
	Linear fluid (dielectric constant: 78.4, screening length: 8.12261 Bohr) occupying 0.720607 of unit cell:	Completed after 14 iterations at t[s]:   8910.30
	Linear fluid (dielectric constant: 78.4, screening length: 8.12261 Bohr) occupying 0.720413 of unit cell:	Completed after 14 iterations at t[s]:   8954.82
	FillingsUpdate:  mu: -0.145500000  nElectrons: 217.394099  magneticMoment: [ Abs: 1.27963  Tot: +0.95074 ]
	SubspaceRotationAdjust: set factor to 0.13
ElecMinimize: Iter:   6  G: -339.629707586111067  |grad|_K:  1.671e-06  alpha:  2.662e-01  linmin: -9.381e-04  t[s]:   9003.31
	Linear fluid (dielectric constant: 78.4, screening length: 8.12261 Bohr) occupying 0.720555 of unit cell:	Completed after 10 iterations at t[s]:   9051.07
	Linear fluid (dielectric constant: 78.4, screening length: 8.12261 Bohr) occupying 0.720585 of unit cell:	Completed after 3 iterations at t[s]:   9088.66
	FillingsUpdate:  mu: -0.145500000  nElectrons: 217.367448  magneticMoment: [ Abs: 1.25760  Tot: +0.92561 ]
	SubspaceRotationAdjust: set factor to 0.169
ElecMinimize: Iter:   7  G: -339.629929958558989  |grad|_K:  1.037e-06  alpha:  3.254e-01  linmin: -3.410e-04  t[s]:   9136.77
	Linear fluid (dielectric constant: 78.4, screening length: 8.12261 Bohr) occupying 0.720615 of unit cell:	Completed after 7 iterations at t[s]:   9182.73
	Linear fluid (dielectric constant: 78.4, screening length: 8.12261 Bohr) occupying 0.720629 of unit cell:	Completed after 7 iterations at t[s]:   9222.74
	FillingsUpdate:  mu: -0.145500000  nElectrons: 217.360781  magneticMoment: [ Abs: 1.25245  Tot: +0.92059 ]
	SubspaceRotationAdjust: set factor to 0.147
ElecMinimize: Iter:   8  G: -339.630044425252777  |grad|_K:  8.784e-07  alpha:  4.834e-01  linmin: -7.916e-05  t[s]:   9271.09
	Linear fluid (dielectric constant: 78.4, screening length: 8.12261 Bohr) occupying 0.720614 of unit cell:	Completed after 8 iterations at t[s]:   9317.34
	Linear fluid (dielectric constant: 78.4, screening length: 8.12261 Bohr) occupying 0.720618 of unit cell:	Completed after 3 iterations at t[s]:   9354.26
	FillingsUpdate:  mu: -0.145500000  nElectrons: 217.350021  magneticMoment: [ Abs: 1.24122  Tot: +0.91107 ]
	SubspaceRotationAdjust: set factor to 0.16
ElecMinimize: Iter:   9  G: -339.630099172314374  |grad|_K:  5.831e-07  alpha:  3.407e-01  linmin:  1.352e-05  t[s]:   9402.36
	Linear fluid (dielectric constant: 78.4, screening length: 8.12261 Bohr) occupying 0.720593 of unit cell:	Completed after 3 iterations at t[s]:   9445.38
	Linear fluid (dielectric constant: 78.4, screening length: 8.12261 Bohr) occupying 0.720568 of unit cell:	Completed after 3 iterations at t[s]:   9482.67
	FillingsUpdate:  mu: -0.145500000  nElectrons: 217.342303  magneticMoment: [ Abs: 1.23001  Tot: +0.90437 ]
	SubspaceRotationAdjust: set factor to 0.188
ElecMinimize: Iter:  10  G: -339.630145868001591  |grad|_K:  4.904e-07  alpha:  6.758e-01  linmin:  6.774e-06  t[s]:   9530.68
	Linear fluid (dielectric constant: 78.4, screening length: 8.12261 Bohr) occupying 0.720523 of unit cell:	Completed after 7 iterations at t[s]:   9576.92
	Linear fluid (dielectric constant: 78.4, screening length: 8.12261 Bohr) occupying 0.720546 of unit cell:	Completed after 4 iterations at t[s]:   9614.57
	FillingsUpdate:  mu: -0.145500000  nElectrons: 217.344945  magneticMoment: [ Abs: 1.22960  Tot: +0.90710 ]
	SubspaceRotationAdjust: set factor to 0.176
ElecMinimize: Iter:  11  G: -339.630162239214826  |grad|_K:  4.075e-07  alpha:  3.321e-01  linmin:  1.228e-05  t[s]:   9662.52
	Linear fluid (dielectric constant: 78.4, screening length: 8.12261 Bohr) occupying 0.720530 of unit cell:	Completed after 3 iterations at t[s]:   9705.21
	Linear fluid (dielectric constant: 78.4, screening length: 8.12261 Bohr) occupying 0.720515 of unit cell:	Completed after 3 iterations at t[s]:   9742.16
	FillingsUpdate:  mu: -0.145500000  nElectrons: 217.343903  magneticMoment: [ Abs: 1.22183  Tot: +0.90574 ]
	SubspaceRotationAdjust: set factor to 0.225
ElecMinimize: Iter:  12  G: -339.630184236953994  |grad|_K:  3.093e-07  alpha:  6.438e-01  linmin: -1.707e-04  t[s]:   9789.99
	Linear fluid (dielectric constant: 78.4, screening length: 8.12261 Bohr) occupying 0.720506 of unit cell:	Completed after 3 iterations at t[s]:   9832.57
	Linear fluid (dielectric constant: 78.4, screening length: 8.12261 Bohr) occupying 0.720507 of unit cell:	Completed after 2 iterations at t[s]:   9868.07
	FillingsUpdate:  mu: -0.145500000  nElectrons: 217.344367  magneticMoment: [ Abs: 1.21726  Tot: +0.90568 ]
	SubspaceRotationAdjust: set factor to 0.238
ElecMinimize: Iter:  13  G: -339.630194472784922  |grad|_K:  3.385e-07  alpha:  5.172e-01  linmin:  8.098e-06  t[s]:   9915.21
	Linear fluid (dielectric constant: 78.4, screening length: 8.12261 Bohr) occupying 0.720506 of unit cell:	Completed after 7 iterations at t[s]:   9960.29
	Linear fluid (dielectric constant: 78.4, screening length: 8.12261 Bohr) occupying 0.720507 of unit cell:	Completed after 3 iterations at t[s]:   9997.26
	FillingsUpdate:  mu: -0.145500000  nElectrons: 217.350213  magneticMoment: [ Abs: 1.21781  Tot: +0.91087 ]
	SubspaceRotationAdjust: set factor to 0.192
ElecMinimize: Iter:  14  G: -339.630202152661866  |grad|_K:  2.660e-07  alpha:  3.275e-01  linmin:  1.045e-04  t[s]:  10044.82
	Linear fluid (dielectric constant: 78.4, screening length: 8.12261 Bohr) occupying 0.720509 of unit cell:	Completed after 3 iterations at t[s]:  10087.34
	Linear fluid (dielectric constant: 78.4, screening length: 8.12261 Bohr) occupying 0.720511 of unit cell:	Completed after 2 iterations at t[s]:  10123.61
	FillingsUpdate:  mu: -0.145500000  nElectrons: 217.351746  magneticMoment: [ Abs: 1.21323  Tot: +0.91166 ]
	SubspaceRotationAdjust: set factor to 0.271
ElecMinimize: Iter:  15  G: -339.630209644460820  |grad|_K:  1.900e-07  alpha:  5.217e-01  linmin: -1.156e-04  t[s]:  10170.99
	Linear fluid (dielectric constant: 78.4, screening length: 8.12261 Bohr) occupying 0.720517 of unit cell:	Completed after 3 iterations at t[s]:  10213.55
	Linear fluid (dielectric constant: 78.4, screening length: 8.12261 Bohr) occupying 0.720517 of unit cell:	Completed after 0 iterations at t[s]:  10247.93
	FillingsUpdate:  mu: -0.145500000  nElectrons: 217.351468  magneticMoment: [ Abs: 1.20901  Tot: +0.91094 ]
	SubspaceRotationAdjust: set factor to 0.233
ElecMinimize: Iter:  16  G: -339.630213960935521  |grad|_K:  1.862e-07  alpha:  5.726e-01  linmin: -2.772e-04  t[s]:  10295.42
	Linear fluid (dielectric constant: 78.4, screening length: 8.12261 Bohr) occupying 0.720527 of unit cell:	Completed after 7 iterations at t[s]:  10340.61
	Linear fluid (dielectric constant: 78.4, screening length: 8.12261 Bohr) occupying 0.720522 of unit cell:	Completed after 3 iterations at t[s]:  10377.54
	FillingsUpdate:  mu: -0.145500000  nElectrons: 217.354250  magneticMoment: [ Abs: 1.20949  Tot: +0.91348 ]
	SubspaceRotationAdjust: set factor to 0.174
ElecMinimize: Iter:  17  G: -339.630216200716688  |grad|_K:  1.319e-07  alpha:  2.919e-01  linmin:  9.988e-05  t[s]:  10425.39
	Linear fluid (dielectric constant: 78.4, screening length: 8.12261 Bohr) occupying 0.720524 of unit cell:	Completed after 2 iterations at t[s]:  10467.60
	Linear fluid (dielectric constant: 78.4, screening length: 8.12261 Bohr) occupying 0.720526 of unit cell:	Completed after 2 iterations at t[s]:  10503.81
	FillingsUpdate:  mu: -0.145500000  nElectrons: 217.354470  magneticMoment: [ Abs: 1.20782  Tot: +0.91354 ]
	SubspaceRotationAdjust: set factor to 0.22
ElecMinimize: Iter:  18  G: -339.630217962156166  |grad|_K:  9.154e-08  alpha:  4.981e-01  linmin: -1.949e-04  t[s]:  10551.54
	Linear fluid (dielectric constant: 78.4, screening length: 8.12261 Bohr) occupying 0.720527 of unit cell:	Completed after 1 iterations at t[s]:  10592.76
	Linear fluid (dielectric constant: 78.4, screening length: 8.12261 Bohr) occupying 0.720527 of unit cell:	Completed after 1 iterations at t[s]:  10628.46
	FillingsUpdate:  mu: -0.145500000  nElectrons: 217.354009  magneticMoment: [ Abs: 1.20620  Tot: +0.91303 ]
	SubspaceRotationAdjust: set factor to 0.264
ElecMinimize: Iter:  19  G: -339.630219203893034  |grad|_K:  6.478e-08  alpha:  7.075e-01  linmin: -1.104e-04  t[s]:  10676.02
	Linear fluid (dielectric constant: 78.4, screening length: 8.12261 Bohr) occupying 0.720526 of unit cell:	Completed after 3 iterations at t[s]:  10718.65
	Linear fluid (dielectric constant: 78.4, screening length: 8.12261 Bohr) occupying 0.720526 of unit cell:	Completed after 0 iterations at t[s]:  10752.84
	FillingsUpdate:  mu: -0.145500000  nElectrons: 217.353425  magneticMoment: [ Abs: 1.20533  Tot: +0.91248 ]
	SubspaceRotationAdjust: set factor to 0.307
ElecMinimize: Iter:  20  G: -339.630219728989971  |grad|_K:  5.703e-08  alpha:  6.114e-01  linmin: -1.091e-04  t[s]:  10800.43
	Linear fluid (dielectric constant: 78.4, screening length: 8.12261 Bohr) occupying 0.720524 of unit cell:	Completed after 2 iterations at t[s]:  10842.27
	Linear fluid (dielectric constant: 78.4, screening length: 8.12261 Bohr) occupying 0.720525 of unit cell:	Completed after 1 iterations at t[s]:  10878.06
	FillingsUpdate:  mu: -0.145500000  nElectrons: 217.352602  magneticMoment: [ Abs: 1.20451  Tot: +0.91170 ]
	SubspaceRotationAdjust: set factor to 0.208
ElecMinimize: Iter:  21  G: -339.630219989236934  |grad|_K:  6.537e-08  alpha:  3.898e-01  linmin:  3.253e-04  t[s]:  10925.85
	Linear fluid (dielectric constant: 78.4, screening length: 8.12261 Bohr) occupying 0.720523 of unit cell:	Completed after 2 iterations at t[s]:  10967.62
	Linear fluid (dielectric constant: 78.4, screening length: 8.12261 Bohr) occupying 0.720524 of unit cell:	Completed after 2 iterations at t[s]:  11003.97
	FillingsUpdate:  mu: -0.145500000  nElectrons: 217.352801  magneticMoment: [ Abs: 1.20473  Tot: +0.91194 ]
	SubspaceRotationAdjust: set factor to 0.145
ElecMinimize: Iter:  22  G: -339.630220117344038  |grad|_K:  3.587e-08  alpha:  1.790e-01  linmin:  2.218e-04  t[s]:  11051.64
	Linear fluid (dielectric constant: 78.4, screening length: 8.12261 Bohr) occupying 0.720524 of unit cell:	Completed after 0 iterations at t[s]:  11091.61
ElecMinimize: 	Predicted alpha/alphaT>3.000000, increasing alphaT to 5.369457e-01.
	Linear fluid (dielectric constant: 78.4, screening length: 8.12261 Bohr) occupying 0.720524 of unit cell:	Completed after 0 iterations at t[s]:  11125.82
	Linear fluid (dielectric constant: 78.4, screening length: 8.12261 Bohr) occupying 0.720524 of unit cell:	Completed after 0 iterations at t[s]:  11160.08
	FillingsUpdate:  mu: -0.145500000  nElectrons: 217.352453  magneticMoment: [ Abs: 1.20454  Tot: +0.91166 ]
	SubspaceRotationAdjust: set factor to 0.187
ElecMinimize: Iter:  23  G: -339.630220273329826  |grad|_K:  2.554e-08  alpha:  6.267e-01  linmin: -6.674e-08  t[s]:  11207.76
	Linear fluid (dielectric constant: 78.4, screening length: 8.12261 Bohr) occupying 0.720524 of unit cell:	Completed after 2 iterations at t[s]:  11249.69
	Linear fluid (dielectric constant: 78.4, screening length: 8.12261 Bohr) occupying 0.720524 of unit cell:	Completed after 0 iterations at t[s]:  11283.92
	FillingsUpdate:  mu: -0.145500000  nElectrons: 217.352119  magneticMoment: [ Abs: 1.20431  Tot: +0.91135 ]
	SubspaceRotationAdjust: set factor to 0.157
ElecMinimize: Iter:  24  G: -339.630220311609833  |grad|_K:  2.573e-08  alpha:  3.750e-01  linmin:  2.948e-05  t[s]:  11331.47
	Linear fluid (dielectric constant: 78.4, screening length: 8.12261 Bohr) occupying 0.720525 of unit cell:	Completed after 1 iterations at t[s]:  11372.70
	Linear fluid (dielectric constant: 78.4, screening length: 8.12261 Bohr) occupying 0.720525 of unit cell:	Completed after 0 iterations at t[s]:  11406.86
	FillingsUpdate:  mu: -0.145500000  nElectrons: 217.352146  magneticMoment: [ Abs: 1.20440  Tot: +0.91139 ]
	SubspaceRotationAdjust: set factor to 0.163
ElecMinimize: Iter:  25  G: -339.630220337012133  |grad|_K:  1.362e-08  alpha:  2.332e-01  linmin: -1.848e-04  t[s]:  11454.60
ElecMinimize: Converged (|Delta G|<1.000000e-07 for 2 iters).
Setting wave functions to eigenvectors of Hamiltonian
Converging empty states (this may take a while): |deigs|: 8.768e-04
Single-point solvation energy estimate, DeltaG = -0.009032051423446

Computing DFT-D3 correction:
# coordination-number C 3.298 3.320 3.331 3.329 3.310 3.286 3.322 3.616 3.325 3.310 3.297 3.312 3.300 3.299 3.320 3.507 3.262 3.298 3.317 3.332 3.326 3.298 3.299 3.325 3.331 3.317 3.298 3.262 3.618 3.320 3.298 3.298 3.323 3.298 3.310 3.326 3.508 3.313 3.286 3.310 3.329 3.332 3.320 3.297 1.120
# coordination-number N 3.175 3.165 3.175 3.164
# coordination-number Ti 5.428
# coordination-number O 1.003
# diagonal-C6 C 24.30 24.08 23.96 23.99 24.18 24.41 24.06 20.09 24.03 24.18 24.31 24.16 24.28 24.30 24.08 21.53 24.61 24.31 24.11 23.96 24.02 24.30 24.29 24.03 23.96 24.11 24.30 24.61 20.07 24.08 24.31 24.30 24.05 24.30 24.18 24.02 21.52 24.15 24.41 24.19 23.99 23.96 24.08 24.31 42.57
# diagonal-C6 N 15.60 15.60 15.60 15.60
# diagonal-C6 Ti 321.59
# diagonal-C6 O 12.81
EvdW_6 =   -0.037584
EvdW_8 =   -0.030191

# Ionic positions in cartesian coordinates:
ion C  23.419180000000004   0.018695000000000  43.250261000000009 1
ion C  21.031352000000002   3.964618000000001  43.200422000000010 1
ion C  18.688414000000005   7.968838000000001  43.081647000000004 1
ion C  16.380407000000002  11.990593000000004  43.069116000000008 1
ion C  -9.383419999999999  15.985093000000004  43.193632000000008 1
ion C   4.673390000000001   0.119957000000000   0.053476000000000 1
ion C   2.274218000000000   4.123095000000001   0.154677000000000 1
ion C  -0.124672000000000   7.946634000000003   0.076103000000000 1
ion C  -2.437388000000000  11.959029000000001  43.176677000000005 1
ion C  -4.732765000000001  15.991274000000004  43.183016000000009 1
ion C   9.356190000000000   0.023238000000000   0.010450000000000 1
ion C   7.058466000000002   4.154537000000001   0.252653000000000 1
ion C  -0.038834000000001  15.894342000000004   0.005609000000000 1
ion C   2.331272000000002  19.853413000000003  43.250895000000007 1
ion C  11.741051000000004   3.961288000000001  43.242269000000007 1
ion C   9.462717000000001   7.958154000000001   0.191363000000000 1
ion C   4.661134000000002  15.747289000000000   0.182617000000000 1
ion C   6.981856000000002  19.853470999999999   0.001383000000000 1
ion C  16.386358999999999   3.939502000000001  43.137455000000010 1
ion C  14.076564000000001   7.966604000000002  43.084170000000007 1
ion C  11.759965000000001  11.966616999999999  43.213427000000010 1
ion C   9.354329999999999  15.884894000000001   0.069780000000000 1
ion C  -0.028970000000000   2.687475000000001   0.007740000000000 1
ion C  -2.433772000000000   6.618415000000001  43.177645000000005 1
ion C  -4.749178000000001  10.622667000000000  43.081437000000008 1
ion C  -7.056528000000000  14.648706000000002  43.137648000000006 1
ion C  -9.385168000000000  18.673175000000001  43.252072000000005 1
ion C   4.670738000000002   2.841908000000001   0.185472000000000 1
ion C  -0.126645000000000  10.634720000000002   0.074994000000000 1
ion C  -2.412063000000002  14.630831000000004  43.199177000000006 1
ion C  -4.734948000000001  18.680274000000001   0.002206000000000 1
ion C   9.363601000000001   2.711374000000001   0.071084000000000 1
ion C   2.266487999999999  14.463141000000002   0.151460000000000 1
ion C  -0.031856999999999  18.580906000000002  43.249198000000007 1
ion C  14.061641000000002   2.599624000000000  43.193286000000008 1
ion C  11.763461000000001   6.632988000000001  43.214039000000007 1
ion C   9.461122000000000  10.638050000000002   0.190360000000000 1
ion C   7.051219000000001  14.438840000000004   0.250043000000000 1
ion C   4.658958000000002  18.468817999999999   0.051635000000000 1
ion C  18.712414000000003   2.600646000000001  43.183040000000005 1
ion C  16.383405000000003   6.615631000000001  43.069164000000008 1
ion C  14.075048000000004  10.636418000000003  43.084098000000004 1
ion C  11.733832000000000  14.638285000000000  43.241684000000006 1
ion C   9.342264000000000  18.572887000000001   0.010034000000000 1
ion C   4.926898000000001   9.332360000000001   7.637543000000001 1
ion N   2.159938000000001  11.862763000000001   0.312250000000000 1
ion N   7.170319999999998  11.835448000000003   0.494557000000000 1
ion N   2.164011999999999   6.723762000000002   0.315049000000000 1
ion N   7.173650000000000   6.758289000000001   0.496981000000000 1
ion Ti   4.526661000000000   9.300124000000002   1.970501000000000 1
ion O   4.906700000000000   9.334518000000001   9.788628000000001 1

# Forces in Cartesian coordinates:
force C  -0.000053733653196  -0.000031335669059   0.000056953040704 1
force C   0.000094112026290  -0.000016583417985   0.000061793154984 1
force C   0.000063744836940   0.000002846366041  -0.000007442497470 1
force C  -0.000130586283604   0.000029238738220   0.000047235239761 1
force C  -0.000142494051464   0.000041375027859   0.000084965663341 1
force C  -0.000029552940790  -0.000091496791186   0.000112190725339 1
force C  -0.000077845187441  -0.000056873454756   0.000415987024433 1
force C  -0.000128425907216   0.000001768941848   0.000410020206256 1
force C  -0.000100192707416   0.000005190733094   0.000079129232477 1
force C  -0.000093593598326   0.000031009130305   0.000002118921021 1
force C   0.000013251762586  -0.000090992608659   0.000068612278846 1
force C   0.000025327281571  -0.000176050878558   0.000438290173435 1
force C  -0.000062498209647   0.000079270249597   0.000126919472179 1
force C  -0.000048150427618   0.000098277547026   0.000058627424246 1
force C   0.000029103381766  -0.000025263663959   0.000252605806259 1
force C   0.000030974183313   0.000007340679465   0.000719398206652 1
force C  -0.000017742867248   0.000106301750426   0.000321551247967 1
force C  -0.000005114595625   0.000115613289481   0.000042393899824 1
force C   0.000056943732105  -0.000011754590952   0.000039955215539 1
force C   0.000021810146572   0.000001947433139   0.000243989328905 1
force C   0.000025718400159   0.000018381275293   0.000450487518350 1
force C   0.000017684208856   0.000129919543326   0.000222207811471 1
force C  -0.000062274519764  -0.000055351156630   0.000134293898234 1
force C  -0.000099246936200   0.000012329220617   0.000083114605969 1
force C  -0.000116400695392   0.000016648007880  -0.000009535832260 1
force C  -0.000119296228848   0.000030954819457   0.000036054675984 1
force C  -0.000138285500346   0.000059554959635   0.000062174003401 1
force C  -0.000018806108118  -0.000086063944676   0.000327453823198 1
force C  -0.000128648387487   0.000021188787719   0.000404665255777 1
force C  -0.000081303186350   0.000032825769910   0.000055129101841 1
force C  -0.000091855708199   0.000042482733445   0.000044091922737 1
force C   0.000015157792081  -0.000104694049534   0.000225679022182 1
force C  -0.000079361798652   0.000079619158826   0.000405034501373 1
force C  -0.000054360198792   0.000050335473896   0.000053765137307 1
force C   0.000034794213596  -0.000023586207106   0.000085970608544 1
force C   0.000021181086096   0.000002382384149   0.000451699689150 1
force C   0.000032592723303   0.000017015574149   0.000719507295284 1
force C   0.000027223855288   0.000199525351895   0.000435118543338 1
force C  -0.000031218069776   0.000108860014336   0.000107245913872 1
force C   0.000081483024978  -0.000013455269837   0.000006542269964 1
force C   0.000046744722410  -0.000009020899700   0.000051611249032 1
force C   0.000023329781308   0.000020333844493   0.000242634879271 1
force C   0.000029758429351   0.000043543096699   0.000250888475962 1
force C   0.000013501307347   0.000111675515516   0.000067377038130 1
force C   0.000322638014361  -0.000013077917044  -0.005851151582164 1
force N  -0.000089485598435   0.000016190125729   0.000827429165910 1
force N  -0.000009519368466   0.000216033210244   0.000833234912886 1
force N  -0.000097815664224  -0.000008348544253   0.000838904703389 1
force N  -0.000007530363446  -0.000197969257068   0.000822727692093 1
force Ti   0.000369199117934   0.000032272704451   0.000455782974138 1
force O   0.000408293281216  -0.000008173380295  -0.005811317388338 1

# Energy components:
   A_diel =        0.0179838237431096
   Eewald =     1544.0400895013947320
       EH =     1835.0100520538396722
     Eloc =    -3888.2835882077401948
      Enl =       50.3899317871259598
     EvdW =       -0.0677748366308922
      Exc =     -104.8498095194298543
 Exc_core =        3.2444698452475613
       KE =      189.2370161571468543
  MuShift =        0.0069284181317450
-------------------------------------
     Etot =     -371.2547009771712396
       TS =        0.0002565439995556
-------------------------------------
        F =     -371.2549575211708088
      muN =      -31.6247371841586791
-------------------------------------
        G =     -339.6302203370121333


Dumping 'jdft.fillings' ... done
Dumping 'jdft.wfns' ... done
Dumping 'jdft.fluidState' ... done
Dumping 'jdft.ionpos' ... done
Dumping 'jdft.lattice' ... done
Dumping 'jdft.eigenvals' ... done
Dumping 'jdft.eigStats' ... 
	eMin: -2.280264 at state 1 ( [ +0.000000 +0.333333 +0.000000 ] spin 1 )
	HOMO: -0.146396 at state 4 ( [ +0.333333 +0.333333 +0.000000 ] spin 1 )
	mu  : -0.145500
	LUMO: -0.134756 at state 2 ( [ +0.000000 -0.333333 +0.000000 ] spin 1 )
	eMax: +0.017109 at state 9 ( [ +0.000000 +0.000000 +0.000000 ] spin -1 )
	HOMO-LUMO gap: +0.011640
	Optical gap  : +0.013567 at state 2 ( [ +0.000000 -0.333333 +0.000000 ] spin 1 )
Dumping 'jdft.Ecomponents' ... done
IonicMinimize: Iter:   0  G: -339.630220337012133  |grad|_K:  7.006e-04  t[s]:  12425.82
IonicMinimize: None of the convergence criteria satisfied after 0 iterations.

#--- Lowdin population analysis ---
# oxidation-state C +0.043 +0.053 +0.044 +0.049 +0.040 +0.044 +0.171 +0.128 +0.032 +0.040 +0.043 +0.168 +0.027 +0.048 +0.053 +0.139 +0.004 +0.048 +0.039 +0.043 +0.031 +0.029 +0.027 +0.032 +0.044 +0.039 +0.048 +0.004 +0.128 +0.053 +0.048 +0.029 +0.171 +0.043 +0.040 +0.031 +0.138 +0.168 +0.044 +0.040 +0.049 +0.043 +0.053 +0.043 +0.261
# magnetic-moments C +0.000 -0.003 -0.001 +0.001 +0.000 +0.002 +0.007 -0.002 +0.005 +0.000 -0.001 +0.010 +0.003 -0.000 +0.002 +0.001 -0.009 -0.000 -0.002 +0.001 +0.002 -0.003 +0.003 +0.005 -0.001 -0.002 -0.000 -0.009 -0.002 -0.003 -0.000 -0.003 +0.007 +0.000 +0.000 +0.002 +0.002 +0.010 +0.002 +0.000 +0.001 +0.001 +0.002 -0.001 +0.004
# oxidation-state N -0.303 -0.304 -0.303 -0.304
# magnetic-moments N -0.024 -0.027 -0.024 -0.027
# oxidation-state Ti +1.384
# magnetic-moments Ti +0.955
# oxidation-state O -0.047
# magnetic-moments O +0.002


Dumping 'jdft.n_up' ... done
Dumping 'jdft.n_dn' ... done
Dumping 'jdft.tau_up' ... done
Dumping 'jdft.tau_dn' ... done
Dumping 'jdft.eigenvals' ... done
Dumping 'jdft.eigStats' ... 
	eMin: -2.280264 at state 1 ( [ +0.000000 +0.333333 +0.000000 ] spin 1 )
	HOMO: -0.146396 at state 4 ( [ +0.333333 +0.333333 +0.000000 ] spin 1 )
	mu  : -0.145500
	LUMO: -0.134756 at state 2 ( [ +0.000000 -0.333333 +0.000000 ] spin 1 )
	eMax: +0.017109 at state 9 ( [ +0.000000 +0.000000 +0.000000 ] spin -1 )
	HOMO-LUMO gap: +0.011640
	Optical gap  : +0.013567 at state 2 ( [ +0.000000 -0.333333 +0.000000 ] spin 1 )
Dumping 'jdft.kPts' ... done
Dumping 'jdft.dosUp' ... done.
Dumping 'jdft.dosDn' ... done.
End date and time: Tue Mar 14 17:01:17 2023  (Duration: 0-3:28:19.53)
Done!

PROFILER:             augmentDensityGrid     0.818643 +/-     0.978962 s,  748 calls,    612.344925 s total
PROFILER:         augmentDensityGridGrad     0.492468 +/-     0.531834 s,  376 calls,    185.167820 s total
PROFILER:        augmentDensitySpherical     0.000577 +/-     0.000778 s,  748 calls,      0.431264 s total
PROFILER:    augmentDensitySphericalGrad     0.000565 +/-     0.000775 s,  532 calls,      0.300735 s total
PROFILER:                 augmentOverlap     1.559400 +/-     2.156612 s, 1268 calls,   1977.319323 s total
PROFILER:        ColumnBundle::randomize     0.005347 +/-     0.000000 s,    1 calls,      0.005347 s total
PROFILER:                     diagouterI    17.099882 +/-     4.249796 s,  190 calls,   3248.977502 s total
PROFILER:              EdensityAndVscloc     3.769141 +/-     5.121595 s,  188 calls,    708.598592 s total
PROFILER:                     EnlAndGrad     0.001462 +/-     0.002208 s,  648 calls,      0.947581 s total
PROFILER:            ExCorrCommunication     0.068938 +/-     0.091141 s, 1141 calls,     78.657903 s total
PROFILER:               ExCorrFunctional     0.026467 +/-     0.004549 s,  192 calls,      5.081601 s total
PROFILER:                    ExCorrTotal     0.690539 +/-     0.181283 s,  192 calls,    132.583400 s total
PROFILER:                   Idag_DiagV_I    25.505089 +/-    14.532015 s,  132 calls,   3366.671765 s total
PROFILER:                    initWeights     1.886346 +/-     0.000000 s,    1 calls,      1.886346 s total
PROFILER:                    inv(matrix)     0.001845 +/-     0.000067 s,  118 calls,      0.217717 s total
PROFILER:            matrix::diagonalize     0.010893 +/-     0.005843 s,  312 calls,      3.398752 s total
PROFILER:                    matrix::set     0.000002 +/-     0.000004 s, 15415 calls,      0.030114 s total
PROFILER:            orthoMatrix(matrix)     0.001563 +/-     0.000592 s,  157 calls,      0.245391 s total
PROFILER:     RadialFunctionR::transform     0.017964 +/-     0.140335 s,  141 calls,      2.532988 s total
PROFILER:                    reduceKmesh     0.000000 +/-     0.000000 s,    1 calls,      0.000000 s total
PROFILER:   VanDerWaalsD3::energyAndGrad     0.029235 +/-     0.000933 s,    3 calls,      0.087705 s total
PROFILER:               WavefunctionDrag    14.209267 +/-     0.000000 s,    1 calls,     14.209267 s total
PROFILER:                            Y*M     0.705919 +/-     0.879102 s, 2489 calls,   1757.032314 s total
PROFILER:                          Y1^Y2     0.675962 +/-     0.861205 s, 1712 calls,   1157.246154 s total

MEMUSAGE:                   ColumnBundle     1.307997 GB
MEMUSAGE:        complexScalarFieldTilde     0.074158 GB
MEMUSAGE:                    IndexArrays     0.023178 GB
MEMUSAGE:                         matrix     0.020558 GB
MEMUSAGE:                           misc     0.050872 GB
MEMUSAGE:                    ScalarField     0.358429 GB
MEMUSAGE:               ScalarFieldTilde     0.262436 GB
MEMUSAGE:                          Total     1.587284 GB
