
*************** JDFTx 1.7.0 (git hash 5f12716a) ***************

Start date and time: Wed Nov  9 13:08:51 2022
Executable /home/nisi6161/jdftx_alpine/build/jdftx with command-line: -i in
Running on hosts (process indices):  c3cpu-a5-u5-3.rc.int.colorado.edu (0-17)
Divided in process groups (process indices):  0 (0)  1 (1)  2 (2)  3 (3)  4 (4)  5 (5)  6 (6)  7 (7)  8 (8)  9 (9)  10 (10)  11 (11)  12 (12)  13 (13)  14 (14)  15 (15)  16 (16)  17 (17)
Resource initialization completed at t[s]:      0.01
Run totals: 18 processes, 64 threads, 0 GPUs


Input parsed successfully to the following command list (including defaults):

basis kpoint-dependent
converge-empty-states yes
coords-type Cartesian
core-overlap-check none
coulomb-interaction Periodic
davidson-band-ratio 1.1
density-of-states Etol 1.000000e-06 Esigma 1.000000e-03 \
		Complete \
	Total \
	OrthoOrbital C 1   s \
	OrthoOrbital C 1   p \
	OrthoOrbital C 1   px \
	OrthoOrbital C 1   py \
	OrthoOrbital C 1   pz \
	OrthoOrbital C 2   s \
	OrthoOrbital C 2   p \
	OrthoOrbital C 2   px \
	OrthoOrbital C 2   py \
	OrthoOrbital C 2   pz \
	OrthoOrbital C 3   s \
	OrthoOrbital C 3   p \
	OrthoOrbital C 3   px \
	OrthoOrbital C 3   py \
	OrthoOrbital C 3   pz \
	OrthoOrbital C 4   s \
	OrthoOrbital C 4   p \
	OrthoOrbital C 4   px \
	OrthoOrbital C 4   py \
	OrthoOrbital C 4   pz \
	OrthoOrbital C 5   s \
	OrthoOrbital C 5   p \
	OrthoOrbital C 5   px \
	OrthoOrbital C 5   py \
	OrthoOrbital C 5   pz \
	OrthoOrbital C 6   s \
	OrthoOrbital C 6   p \
	OrthoOrbital C 6   px \
	OrthoOrbital C 6   py \
	OrthoOrbital C 6   pz \
	OrthoOrbital C 7   s \
	OrthoOrbital C 7   p \
	OrthoOrbital C 7   px \
	OrthoOrbital C 7   py \
	OrthoOrbital C 7   pz \
	OrthoOrbital C 8   s \
	OrthoOrbital C 8   p \
	OrthoOrbital C 8   px \
	OrthoOrbital C 8   py \
	OrthoOrbital C 8   pz \
	OrthoOrbital C 9   s \
	OrthoOrbital C 9   p \
	OrthoOrbital C 9   px \
	OrthoOrbital C 9   py \
	OrthoOrbital C 9   pz \
	OrthoOrbital C 10   s \
	OrthoOrbital C 10   p \
	OrthoOrbital C 10   px \
	OrthoOrbital C 10   py \
	OrthoOrbital C 10   pz \
	OrthoOrbital C 11   s \
	OrthoOrbital C 11   p \
	OrthoOrbital C 11   px \
	OrthoOrbital C 11   py \
	OrthoOrbital C 11   pz \
	OrthoOrbital C 12   s \
	OrthoOrbital C 12   p \
	OrthoOrbital C 12   px \
	OrthoOrbital C 12   py \
	OrthoOrbital C 12   pz \
	OrthoOrbital C 13   s \
	OrthoOrbital C 13   p \
	OrthoOrbital C 13   px \
	OrthoOrbital C 13   py \
	OrthoOrbital C 13   pz \
	OrthoOrbital C 14   s \
	OrthoOrbital C 14   p \
	OrthoOrbital C 14   px \
	OrthoOrbital C 14   py \
	OrthoOrbital C 14   pz \
	OrthoOrbital C 15   s \
	OrthoOrbital C 15   p \
	OrthoOrbital C 15   px \
	OrthoOrbital C 15   py \
	OrthoOrbital C 15   pz \
	OrthoOrbital C 16   s \
	OrthoOrbital C 16   p \
	OrthoOrbital C 16   px \
	OrthoOrbital C 16   py \
	OrthoOrbital C 16   pz \
	OrthoOrbital C 17   s \
	OrthoOrbital C 17   p \
	OrthoOrbital C 17   px \
	OrthoOrbital C 17   py \
	OrthoOrbital C 17   pz \
	OrthoOrbital C 18   s \
	OrthoOrbital C 18   p \
	OrthoOrbital C 18   px \
	OrthoOrbital C 18   py \
	OrthoOrbital C 18   pz \
	OrthoOrbital C 19   s \
	OrthoOrbital C 19   p \
	OrthoOrbital C 19   px \
	OrthoOrbital C 19   py \
	OrthoOrbital C 19   pz \
	OrthoOrbital C 20   s \
	OrthoOrbital C 20   p \
	OrthoOrbital C 20   px \
	OrthoOrbital C 20   py \
	OrthoOrbital C 20   pz \
	OrthoOrbital C 21   s \
	OrthoOrbital C 21   p \
	OrthoOrbital C 21   px \
	OrthoOrbital C 21   py \
	OrthoOrbital C 21   pz \
	OrthoOrbital C 22   s \
	OrthoOrbital C 22   p \
	OrthoOrbital C 22   px \
	OrthoOrbital C 22   py \
	OrthoOrbital C 22   pz \
	OrthoOrbital C 23   s \
	OrthoOrbital C 23   p \
	OrthoOrbital C 23   px \
	OrthoOrbital C 23   py \
	OrthoOrbital C 23   pz \
	OrthoOrbital C 24   s \
	OrthoOrbital C 24   p \
	OrthoOrbital C 24   px \
	OrthoOrbital C 24   py \
	OrthoOrbital C 24   pz \
	OrthoOrbital C 25   s \
	OrthoOrbital C 25   p \
	OrthoOrbital C 25   px \
	OrthoOrbital C 25   py \
	OrthoOrbital C 25   pz \
	OrthoOrbital C 26   s \
	OrthoOrbital C 26   p \
	OrthoOrbital C 26   px \
	OrthoOrbital C 26   py \
	OrthoOrbital C 26   pz \
	OrthoOrbital C 27   s \
	OrthoOrbital C 27   p \
	OrthoOrbital C 27   px \
	OrthoOrbital C 27   py \
	OrthoOrbital C 27   pz \
	OrthoOrbital C 28   s \
	OrthoOrbital C 28   p \
	OrthoOrbital C 28   px \
	OrthoOrbital C 28   py \
	OrthoOrbital C 28   pz \
	OrthoOrbital C 29   s \
	OrthoOrbital C 29   p \
	OrthoOrbital C 29   px \
	OrthoOrbital C 29   py \
	OrthoOrbital C 29   pz \
	OrthoOrbital C 30   s \
	OrthoOrbital C 30   p \
	OrthoOrbital C 30   px \
	OrthoOrbital C 30   py \
	OrthoOrbital C 30   pz \
	OrthoOrbital C 31   s \
	OrthoOrbital C 31   p \
	OrthoOrbital C 31   px \
	OrthoOrbital C 31   py \
	OrthoOrbital C 31   pz \
	OrthoOrbital C 32   s \
	OrthoOrbital C 32   p \
	OrthoOrbital C 32   px \
	OrthoOrbital C 32   py \
	OrthoOrbital C 32   pz \
	OrthoOrbital C 33   s \
	OrthoOrbital C 33   p \
	OrthoOrbital C 33   px \
	OrthoOrbital C 33   py \
	OrthoOrbital C 33   pz \
	OrthoOrbital C 34   s \
	OrthoOrbital C 34   p \
	OrthoOrbital C 34   px \
	OrthoOrbital C 34   py \
	OrthoOrbital C 34   pz \
	OrthoOrbital C 35   s \
	OrthoOrbital C 35   p \
	OrthoOrbital C 35   px \
	OrthoOrbital C 35   py \
	OrthoOrbital C 35   pz \
	OrthoOrbital C 36   s \
	OrthoOrbital C 36   p \
	OrthoOrbital C 36   px \
	OrthoOrbital C 36   py \
	OrthoOrbital C 36   pz \
	OrthoOrbital C 37   s \
	OrthoOrbital C 37   p \
	OrthoOrbital C 37   px \
	OrthoOrbital C 37   py \
	OrthoOrbital C 37   pz \
	OrthoOrbital C 38   s \
	OrthoOrbital C 38   p \
	OrthoOrbital C 38   px \
	OrthoOrbital C 38   py \
	OrthoOrbital C 38   pz \
	OrthoOrbital C 39   s \
	OrthoOrbital C 39   p \
	OrthoOrbital C 39   px \
	OrthoOrbital C 39   py \
	OrthoOrbital C 39   pz \
	OrthoOrbital C 40   s \
	OrthoOrbital C 40   p \
	OrthoOrbital C 40   px \
	OrthoOrbital C 40   py \
	OrthoOrbital C 40   pz \
	OrthoOrbital C 41   s \
	OrthoOrbital C 41   p \
	OrthoOrbital C 41   px \
	OrthoOrbital C 41   py \
	OrthoOrbital C 41   pz \
	OrthoOrbital C 42   s \
	OrthoOrbital C 42   p \
	OrthoOrbital C 42   px \
	OrthoOrbital C 42   py \
	OrthoOrbital C 42   pz \
	OrthoOrbital C 43   s \
	OrthoOrbital C 43   p \
	OrthoOrbital C 43   px \
	OrthoOrbital C 43   py \
	OrthoOrbital C 43   pz \
	OrthoOrbital C 44   s \
	OrthoOrbital C 44   p \
	OrthoOrbital C 44   px \
	OrthoOrbital C 44   py \
	OrthoOrbital C 44   pz \
	OrthoOrbital C 45   s \
	OrthoOrbital C 45   p \
	OrthoOrbital C 45   px \
	OrthoOrbital C 45   py \
	OrthoOrbital C 45   pz \
	OrthoOrbital N 1   s \
	OrthoOrbital N 1   p \
	OrthoOrbital N 1   px \
	OrthoOrbital N 1   py \
	OrthoOrbital N 1   pz \
	OrthoOrbital N 2   s \
	OrthoOrbital N 2   p \
	OrthoOrbital N 2   px \
	OrthoOrbital N 2   py \
	OrthoOrbital N 2   pz \
	OrthoOrbital N 3   s \
	OrthoOrbital N 3   p \
	OrthoOrbital N 3   px \
	OrthoOrbital N 3   py \
	OrthoOrbital N 3   pz \
	OrthoOrbital N 4   s \
	OrthoOrbital N 4   p \
	OrthoOrbital N 4   px \
	OrthoOrbital N 4   py \
	OrthoOrbital N 4   pz \
	OrthoOrbital Ti 1   s \
	OrthoOrbital Ti 1   p \
	OrthoOrbital Ti 1   px \
	OrthoOrbital Ti 1   py \
	OrthoOrbital Ti 1   pz \
	OrthoOrbital Ti 1   d \
	OrthoOrbital Ti 1   dxy \
	OrthoOrbital Ti 1   dyz \
	OrthoOrbital Ti 1   dz2 \
	OrthoOrbital Ti 1   dxz \
	OrthoOrbital Ti 1   dx2-y2 \
	OrthoOrbital O 1   s \
	OrthoOrbital O 1   p \
	OrthoOrbital O 1   px \
	OrthoOrbital O 1   py \
	OrthoOrbital O 1   pz \
	OrthoOrbital O 2   s \
	OrthoOrbital O 2   p \
	OrthoOrbital O 2   px \
	OrthoOrbital O 2   py \
	OrthoOrbital O 2   pz \
	OrthoOrbital H 1   s \
	OrthoOrbital H 2   s
dump End ElecDensity KEdensity BandEigs EigStats RhoAtom DOS Kpoints
dump Ionic State IonicPositions Lattice EigStats Ecomponents
dump 
dump 
dump 
dump 
dump 
dump 
dump 
dump 
dump-name jdft.$VAR
elec-cutoff 20
elec-eigen-algo Davidson
elec-ex-corr gga-PBE
elec-initial-magnetization 0.000000 no
elec-n-bands 136
elec-smearing Fermi 0.001
electronic-minimize  \
	dirUpdateScheme      FletcherReeves \
	linminMethod         DirUpdateRecommended \
	nIterations          100 \
	history              15 \
	knormThreshold       0 \
	energyDiffThreshold  1e-07 \
	nEnergyDiff          2 \
	alphaTstart          1 \
	alphaTmin            1e-10 \
	updateTestStepSize   yes \
	alphaTreduceFactor   0.1 \
	alphaTincreaseFactor 3 \
	nAlphaAdjustMax      3 \
	wolfeEnergy          0.0001 \
	wolfeGradient        0.9 \
	fdTest               no
exchange-regularization WignerSeitzTruncated
fluid LinearPCM 298.000000 1.013250
fluid-anion F- 0.5 MeanFieldLJ \
	epsBulk 1 \
	pMol 0 \
	epsInf 1 \
	Pvap 0 \
	sigmaBulk 0 \
	Rvdw 2.24877 \
	Res 0 \
	tauNuc 343133
fluid-cation Na+ 0.5 MeanFieldLJ \
	epsBulk 1 \
	pMol 0 \
	epsInf 1 \
	Pvap 0 \
	sigmaBulk 0 \
	Rvdw 2.19208 \
	Res 0 \
	tauNuc 343133
fluid-ex-corr lda-TF lda-PZ
fluid-gummel-loop 10 1.000000e-05
fluid-minimize  \
	dirUpdateScheme      PolakRibiere \
	linminMethod         DirUpdateRecommended \
	nIterations          400 \
	history              15 \
	knormThreshold       1e-11 \
	energyDiffThreshold  0 \
	nEnergyDiff          2 \
	alphaTstart          1 \
	alphaTmin            1e-10 \
	updateTestStepSize   yes \
	alphaTreduceFactor   0.1 \
	alphaTincreaseFactor 3 \
	nAlphaAdjustMax      6 \
	wolfeEnergy          0.0001 \
	wolfeGradient        0.9 \
	fdTest               no
fluid-solvent H2O 55.338 ScalarEOS \
	epsBulk 78.4 \
	pMol 0.92466 \
	epsInf 1.77 \
	Pvap 1.06736e-10 \
	sigmaBulk 4.62e-05 \
	Rvdw 2.61727 \
	Res 1.42 \
	tauNuc 343133 \
	poleEl 15 7 1
forces-output-coords Positions
ion C  -0.002138000000000   0.190369000000000   0.033870000000000 0
ion C  -2.396762000000000   4.123718000000001   0.028376000000000 0
ion C  -4.742878000000000   8.125615000000002  43.178105000000009 0
ion C  -7.051417000000001  12.146174999999999  43.167162000000005 0
ion C  -9.376275000000001  16.161076000000005  43.229624000000008 0
ion C   4.679943000000000   0.289908000000000   0.049485000000000 0
ion C   2.291729999999999   4.314058000000001   0.186738000000000 0
ion C  -0.126941000000000   8.127603000000002   0.158578000000000 0
ion C  -2.437823000000001  12.132779000000001   0.017129000000000 0
ion C  -4.727703000000001  16.163388000000005  43.249608000000009 0
ion C   9.372641000000002   0.176379000000000   0.007700000000000 0
ion C   7.079930000000002   4.277074000000001   0.116100000000000 0
ion C  -0.030181000000001  16.054651000000003   0.101220000000000 0
ion C  14.073409000000002   0.082449000000000   0.051648000000000 0
ion C  11.750895000000002   4.127039000000000  43.246926000000009 0
ion C   9.456265000000002   8.118541000000002   0.077559000000000 0
ion C   4.665975000000001  15.924247000000001   0.183796000000000 0
ion C  18.724730000000001   0.090768000000000   0.046803000000000 0
ion C  16.394699000000003   4.112908000000001  43.223568000000007 0
ion C  14.084457999999998   8.137516000000003  43.176159000000006 0
ion C  11.770400000000002  12.142271000000003  43.225385000000010 0
ion C   9.372559000000003  16.084754000000004   0.025564000000000 0
ion C  -0.014901000000000   2.877481000000001   0.072498000000000 0
ion C  -2.426996000000000   6.794656000000000   0.004845000000000 0
ion C  -4.747039000000001  10.795715000000001  43.178019000000006 0
ion C  -7.052008000000001  14.822442000000002  43.208947000000009 0
ion C  -9.378223000000002  18.849333000000005   0.020503000000000 0
ion C   4.677750000000000   3.007153000000001   0.137642000000000 0
ion C  -0.135562000000001  10.807714000000004   0.195129000000000 0
ion C  -2.407990000000001  14.802925000000004   0.040618000000000 0
ion C  -4.726052000000001  18.849074000000005   0.016524000000000 0
ion C   9.383613000000002   2.855868000000000   0.004499000000000 0
ion C   2.273482000000001  14.613514000000000   0.249632000000000 0
ion C  -0.018041000000002  18.739368000000002   0.043689000000000 0
ion C  14.072915000000002   2.769630000000000  43.250992000000004 0
ion C  11.774552000000002   6.799235000000002  43.240222000000010 0
ion C   9.455561000000001  10.819268000000001   0.052859000000000 0
ion C   7.069194000000000  14.652150000000004   0.118652000000000 0
ion C   4.665596000000001  18.644107000000002   0.094212000000000 0
ion C  18.722033000000003   2.777588000000001   0.006186000000000 0
ion C  16.391003000000001   6.788235000000001  43.169973000000006 0
ion C  14.082381000000002  10.809892000000003  43.173953000000004 0
ion C  11.741030999999998  14.816282000000001  43.235723000000007 0
ion C   9.358663000000002  18.766977000000004   0.031880000000000 0
ion C   3.312533000000000   7.713630000000001   5.082098000000001 1
ion N   2.144620999999999  12.015395000000002   0.463275000000000 0
ion N   7.178206000000001  12.061475000000002   0.172939000000000 0
ion N   2.174252000000000   6.926652000000001   0.382343000000000 0
ion N   7.182892000000001   6.861348000000000   0.261874000000000 0
ion Ti   4.823458000000000   9.453008000000002   1.813478000000000 0
ion O   2.255897000000000   6.737521000000001   6.726616000000001 1
ion O   7.316757000000001   3.037370000000001   5.783888000000001 1
ion H   8.473801000000002   3.455171000000000   7.173194000000001 1
ion H   6.103572000000000   1.870371000000000   6.563497000000001 1
ion-species /projects/musgravc/apps/jdftx-1.6.0/build/pseudopotentials/GBRV_v1.5/$ID_pbe_v1.uspp
ion-species /projects/musgravc/apps/jdftx-1.6.0/build/pseudopotentials/GBRV_v1.5/$ID_pbe_v1.2.uspp
ion-species /projects/musgravc/apps/jdftx-1.6.0/build/pseudopotentials/GBRV_v1.5/$ID_pbe_v1.4.uspp
ion-species /projects/musgravc/apps/jdftx-1.6.0/build/pseudopotentials/GBRV_v1.5/$ID_pbe_v1.5.uspp
ion-width Ecut
ionic-minimize  \
	dirUpdateScheme      L-BFGS \
	linminMethod         DirUpdateRecommended \
	nIterations          100 \
	history              15 \
	knormThreshold       0.0001 \
	energyDiffThreshold  0.0001 \
	nEnergyDiff          2 \
	alphaTstart          1 \
	alphaTmin            1e-10 \
	updateTestStepSize   yes \
	alphaTreduceFactor   0.1 \
	alphaTincreaseFactor 3 \
	nAlphaAdjustMax      3 \
	wolfeEnergy          0.0001 \
	wolfeGradient        0.9 \
	fdTest               no
kpoint   0.000000000000   0.000000000000   0.000000000000  1.00000000000000
kpoint-folding 3 3 1 
latt-move-scale 0 0 0
latt-scale 1 1 1 
lattice  \
	  23.436261999999999  -11.733459000000000    0.000000000000000  \
	   0.017994000000000   19.941849000000001    0.000000000000000  \
	   0.000000000000000    0.000000000000000   43.256312999999999 
lattice-minimize  \
	dirUpdateScheme      L-BFGS \
	linminMethod         DirUpdateRecommended \
	nIterations          0 \
	history              15 \
	knormThreshold       0 \
	energyDiffThreshold  1e-06 \
	nEnergyDiff          2 \
	alphaTstart          1 \
	alphaTmin            1e-10 \
	updateTestStepSize   yes \
	alphaTreduceFactor   0.1 \
	alphaTincreaseFactor 3 \
	nAlphaAdjustMax      3 \
	wolfeEnergy          0.0001 \
	wolfeGradient        0.9 \
	fdTest               no
lcao-params 30 1e-06 0.001
pcm-variant CANDLE
spintype z-spin
subspace-rotation-factor 1 yes
symmetries none
symmetry-threshold 0.0001
target-mu -0.1455 no

van-der-waals D3
vibrations \
	dr 0.01\
	centralDiff no\
	useConstraints yes\
	translationSym yes\
	rotationSym no\
	omegaMin 0.0002\
	T 298\
	omegaResolution 0.0001


Applied RMS atom displacement 0 bohrs to make symmetries exact.
Applied RMS atom displacement 0 bohrs to make symmetries exact.

---------- Initializing the Grid ----------
R = 
[      23.4363     -11.7335            0  ]
[     0.017994      19.9418            0  ]
[            0            0      43.2563  ]
unit cell volume = 20225.5
G =
[   0.267976   0.157673         -0  ]
[ -0.000241801   0.314933          0  ]
[          0         -0   0.145255  ]
Minimum fftbox size, Smin = [  96  96  176  ]
Chosen fftbox size, S = [  96  96  180  ]

---------- Exchange Correlation functional ----------
Initalized PBE GGA exchange.
Initalized PBE GGA correlation.

---------- Setting up pseudopotentials ----------
Width of ionic core gaussian charges (only for fluid interactions / plotting) set to 0.397384

Reading pseudopotential file '/projects/musgravc/apps/jdftx-1.6.0/build/pseudopotentials/GBRV_v1.5/c_pbe_v1.2.uspp':
  Title: C.  Created by USPP 7.3.6 on 3-2-2014
  Reference state energy: -5.406344.  4 valence electrons in orbitals:
    |200>  occupation: 2  eigenvalue: -0.504890
    |210>  occupation: 2  eigenvalue: -0.194356
  lMax: 1  lLocal: 2  QijEcut: 5
  4 projectors sampled on a log grid with 503 points:
    l: 0  eig: -0.504890  rCut: 1.3
    l: 0  eig: 0.000000  rCut: 1.3
    l: 1  eig: -0.194357  rCut: 1.3
    l: 1  eig: 0.000000  rCut: 1.3
  Partial core density with radius 1.1
  Transforming core density to a uniform radial grid of dG=0.02 with 1464 points.
  Transforming local potential to a uniform radial grid of dG=0.02 with 1464 points.
  Transforming nonlocal projectors to a uniform radial grid of dG=0.02 with 432 points.
  Transforming density augmentations to a uniform radial grid of dG=0.02 with 1464 points.
  Transforming atomic orbitals to a uniform radial grid of dG=0.02 with 432 points.
  Core radius for overlap checks: 1.30 bohrs.

Reading pseudopotential file '/projects/musgravc/apps/jdftx-1.6.0/build/pseudopotentials/GBRV_v1.5/n_pbe_v1.2.uspp':
  Title: N.  Created by USPP 7.3.6 on 3-2-2014
  Reference state energy: -9.763716.  5 valence electrons in orbitals:
    |200>  occupation: 2  eigenvalue: -0.681964
    |210>  occupation: 3  eigenvalue: -0.260726
  lMax: 1  lLocal: 2  QijEcut: 6
  4 projectors sampled on a log grid with 491 points:
    l: 0  eig: -0.681964  rCut: 1.15
    l: 0  eig: 0.000000  rCut: 1.15
    l: 1  eig: -0.260729  rCut: 1.2
    l: 1  eig: 0.500000  rCut: 1.2
  Partial core density with radius 0.8
  Transforming core density to a uniform radial grid of dG=0.02 with 1464 points.
  Transforming local potential to a uniform radial grid of dG=0.02 with 1464 points.
  Transforming nonlocal projectors to a uniform radial grid of dG=0.02 with 432 points.
  Transforming density augmentations to a uniform radial grid of dG=0.02 with 1464 points.
  Transforming atomic orbitals to a uniform radial grid of dG=0.02 with 432 points.
  Core radius for overlap checks: 1.20 bohrs.

Reading pseudopotential file '/projects/musgravc/apps/jdftx-1.6.0/build/pseudopotentials/GBRV_v1.5/ti_pbe_v1.4.uspp':
  Title: Ti.  Created by USPP 7.3.6 on 31-3-15
  Reference state energy: -59.020943.  12 valence electrons in orbitals:
    |300>  occupation: 2  eigenvalue: -2.777623
    |310>  occupation: 6  eigenvalue: -1.894596
    |400>  occupation: 2  eigenvalue: -0.438610
    |320>  occupation: 1  eigenvalue: -0.583119
  lMax: 2  lLocal: 3  QijEcut: 6
  6 projectors sampled on a log grid with 597 points:
    l: 0  eig: -2.777624  rCut: 1.8
    l: 0  eig: -0.438611  rCut: 1.8
    l: 1  eig: -1.894596  rCut: 1.8
    l: 1  eig: 0.500000  rCut: 1.8
    l: 2  eig: -0.583118  rCut: 1.8
    l: 2  eig: 0.150000  rCut: 1.8
  Partial core density with radius 0.8
  Transforming core density to a uniform radial grid of dG=0.02 with 1464 points.
  Transforming local potential to a uniform radial grid of dG=0.02 with 1464 points.
  Transforming nonlocal projectors to a uniform radial grid of dG=0.02 with 432 points.
  Transforming density augmentations to a uniform radial grid of dG=0.02 with 1464 points.
  Transforming atomic orbitals to a uniform radial grid of dG=0.02 with 432 points.
  Core radius for overlap checks: 1.80 bohrs.

Reading pseudopotential file '/projects/musgravc/apps/jdftx-1.6.0/build/pseudopotentials/GBRV_v1.5/o_pbe_v1.2.uspp':
  Title: O.  Created by USPP 7.3.6 on 3-2-2014
  Reference state energy: -15.894388.  6 valence electrons in orbitals:
    |200>  occupation: 2  eigenvalue: -0.878823
    |210>  occupation: 4  eigenvalue: -0.332131
  lMax: 2  lLocal: 2  QijEcut: 6
  5 projectors sampled on a log grid with 511 points:
    l: 0  eig: -0.878823  rCut: 1.25
    l: 0  eig: 0.000000  rCut: 1.25
    l: 1  eig: -0.332132  rCut: 1.25
    l: 1  eig: 0.000000  rCut: 1.25
    l: 2  eig: 1.000000  rCut: 1.25
  Partial core density with radius 0.7
  Transforming core density to a uniform radial grid of dG=0.02 with 1464 points.
  Transforming local potential to a uniform radial grid of dG=0.02 with 1464 points.
  Transforming nonlocal projectors to a uniform radial grid of dG=0.02 with 432 points.
  Transforming density augmentations to a uniform radial grid of dG=0.02 with 1464 points.
  Transforming atomic orbitals to a uniform radial grid of dG=0.02 with 432 points.
  Core radius for overlap checks: 1.25 bohrs.

Reading pseudopotential file '/projects/musgravc/apps/jdftx-1.6.0/build/pseudopotentials/GBRV_v1.5/h_pbe_v1.4.uspp':
  Title: H.  Created by USPP 7.3.6 on 2-4-15
  Reference state energy: -0.458849.  1 valence electrons in orbitals:
    |100>  occupation: 1  eigenvalue: -0.238595
  lMax: 0  lLocal: 1  QijEcut: 6
  2 projectors sampled on a log grid with 395 points:
    l: 0  eig: -0.238595  rCut: 1.2
    l: 0  eig: 1.000000  rCut: 1.2
  Transforming local potential to a uniform radial grid of dG=0.02 with 1464 points.
  Transforming nonlocal projectors to a uniform radial grid of dG=0.02 with 432 points.
  Transforming density augmentations to a uniform radial grid of dG=0.02 with 1464 points.
  Transforming atomic orbitals to a uniform radial grid of dG=0.02 with 432 points.
  Core radius for overlap checks: 1.20 bohrs.

Initialized 5 species with 54 total atoms.

Folded 1 k-points by 3x3x1 to 9 k-points.

---------- Setting up k-points, bands, fillings ----------
No reducable k-points. 
Computing the number of bands and number of electrons
Calculating initial fillings.
nElectrons: 226.000000   nBands: 136   nStates: 18

----- Setting up reduced wavefunction bases (one per k-point) -----
average nbasis = 86412.556 , ideal nbasis = 86404.907

----- Initializing Supercell corresponding to k-point mesh -----
Lattice vector linear combinations in supercell:
[   3   0   0  ]
[   0   3   0  ]
[   0   0   1  ]
Supercell lattice vectors:
[  70.3088  -35.2004  0  ]
[  0.053982  59.8255  0  ]
[  0  0  43.2563  ]

Initializing DFT-D3 calculator:
	Parameters set for gga-PBE functional
	s6:  1.000  s_r6:  1.217
	s8:  0.722  s_r8:  1.000
	Per-atom parameters loaded for:
	 C:  sqrtQ[a0]:  3.105  Rcov[a0]:  1.417  CN: [ 0.00 0.99 2.00 3.00 3.98 ]
	 N:  sqrtQ[a0]:  2.712  Rcov[a0]:  1.342  CN: [ 0.00 0.99 2.01 2.99 ]
	Ti:  sqrtQ[a0]:  6.288  Rcov[a0]:  2.305  CN: [ 0.00 1.83 3.87 ]
	 O:  sqrtQ[a0]:  2.594  Rcov[a0]:  1.191  CN: [ 0.00 0.99 1.99 ]
	 H:  sqrtQ[a0]:  2.007  Rcov[a0]:  0.605  CN: [ 0.91 0.00 ]

Initializing DFT-D2 calculator for fluid / solvation:
	 C:  C6:   30.35 Eh-a0^6  R0: 2.744 a0
	 N:  C6:   21.33 Eh-a0^6  R0: 2.640 a0
	Ti:  C6:  187.33 Eh-a0^6  R0: 2.952 a0
	 O:  C6:   12.14 Eh-a0^6  R0: 2.536 a0
	 H:  C6:    2.43 Eh-a0^6  R0: 1.892 a0

---------- Setting up ewald sum ----------
Optimum gaussian width for ewald sums = 5.590847 bohr.
Real space sum over 567 unit cells with max indices [  4  4  3  ]
Reciprocal space sum over 7803 terms with max indices [  8  8  13  ]

Computing DFT-D3 correction:
# coordination-number C 3.300 3.321 3.334 3.331 3.312 3.291 3.318 3.522 3.329 3.313 3.303 3.335 3.301 3.300 3.323 3.665 3.264 3.300 3.318 3.332 3.326 3.303 3.300 3.327 3.334 3.319 3.300 3.269 3.521 3.323 3.302 3.306 3.315 3.300 3.312 3.326 3.653 3.327 3.288 3.312 3.330 3.332 3.322 3.300 2.012
# coordination-number N 3.169 3.177 3.186 3.182
# coordination-number Ti 6.447
# coordination-number O 1.023 1.991
# coordination-number H 0.992 0.993
# diagonal-C6 C 24.28 24.07 23.93 23.97 24.16 24.37 24.10 21.31 23.98 24.16 24.25 23.92 24.27 24.29 24.05 19.60 24.60 24.28 24.10 23.96 24.02 24.25 24.28 24.01 23.93 24.10 24.28 24.56 21.33 24.05 24.27 24.22 24.14 24.28 24.16 24.02 19.71 24.01 24.40 24.17 23.97 23.95 24.06 24.28 29.47
# diagonal-C6 N 15.60 15.60 15.60 15.60
# diagonal-C6 Ti 321.59
# diagonal-C6 O 12.79 10.41
# diagonal-C6 H 3.09 3.09
EvdW_6 =   -0.042972
EvdW_8 =   -0.033190

---------- Allocating electronic variables ----------
Initializing wave functions:  linear combination of atomic orbitals
C pseudo-atom occupations:   s ( 2 )  p ( 2 )
N pseudo-atom occupations:   s ( 2 )  p ( 3 )
Ti pseudo-atom occupations:   s ( 2 0 )  p ( 6 )  d ( 4 )
O pseudo-atom occupations:   s ( 2 )  p ( 4 )
H pseudo-atom occupations:   s ( 1 )
	FillingsUpdate:  mu: -0.145500000  nElectrons: 226.000000  magneticMoment: [ Abs: 0.00445  Tot: +0.00000 ]
LCAOMinimize: Iter:   0  G: -350.7639388908232831  |grad|_K:  3.113e-03  alpha:  1.000e+00
	FillingsUpdate:  mu: -0.145500000  nElectrons: 226.000000  magneticMoment: [ Abs: 0.00440  Tot: -0.00000 ]
LCAOMinimize: Iter:   1  G: -351.1780026846712417  |grad|_K:  1.903e-03  alpha:  7.577e-02  linmin: -1.353e-01  cgtest:  1.301e+00  t[s]:    384.53
LCAOMinimize: Encountered beta<0, resetting CG.
LCAOMinimize: 	Predicted alpha/alphaT>3.000000, increasing alphaT to 2.272967e-01.
LCAOMinimize: 	Step increased G by 3.270497e-01, reducing alpha to 4.621996e-02.
	FillingsUpdate:  mu: -0.145500000  nElectrons: 226.000000  magneticMoment: [ Abs: 0.00439  Tot: -0.00000 ]
LCAOMinimize: Iter:   2  G: -351.3069480940143876  |grad|_K:  1.639e-03  alpha:  4.622e-02  linmin: -1.284e-01  cgtest:  1.031e+00  t[s]:    687.51
LCAOMinimize: Encountered beta<0, resetting CG.
LCAOMinimize: 	Predicted alpha/alphaT>3.000000, increasing alphaT to 1.386599e-01.
LCAOMinimize: 	Predicted alpha/alphaT>3.000000, increasing alphaT to 4.159796e-01.
	FillingsUpdate:  mu: -0.145500000  nElectrons: 226.000000  magneticMoment: [ Abs: 0.00439  Tot: -0.00000 ]
LCAOMinimize: Iter:   3  G: -351.5702080305273967  |grad|_K:  1.329e-03  alpha:  1.294e-01  linmin: -1.084e-01  cgtest:  8.786e-01  t[s]:    917.28
LCAOMinimize: Encountered beta<0, resetting CG.
LCAOMinimize: 	Wrong curvature in test step, increasing alphaT to 3.880841e-01.
	FillingsUpdate:  mu: -0.145500000  nElectrons: 226.000000  magneticMoment: [ Abs: 0.00460  Tot: -0.00028 ]
LCAOMinimize: Iter:   4  G: -351.8202357779954355  |grad|_K:  1.252e-03  alpha: -2.219e-01  linmin: -4.007e-02  cgtest:  7.034e-01  t[s]:   1066.39
	FillingsUpdate:  mu: -0.145500000  nElectrons: 226.000000  magneticMoment: [ Abs: 0.00470  Tot: -0.00040 ]
LCAOMinimize: Iter:   5  G: -351.8622694197815122  |grad|_K:  1.383e-03  alpha:  2.762e-02  linmin: -3.782e-02  cgtest:  9.150e-01  t[s]:   1218.01
LCAOMinimize: 	Predicted alpha/alphaT>3.000000, increasing alphaT to 8.285966e-02.
LCAOMinimize: 	Predicted alpha/alphaT>3.000000, increasing alphaT to 2.485790e-01.
LCAOMinimize: 	Predicted alpha/alphaT>3.000000, increasing alphaT to 7.457369e-01.
LCAOMinimize: 	Step increased G by 2.548177e+01, reducing alpha to 9.371505e-02.
	FillingsUpdate:  mu: -0.145500000  nElectrons: 226.000000  magneticMoment: [ Abs: 0.00468  Tot: -0.00028 ]
LCAOMinimize: Iter:   6  G: -352.0371837027914239  |grad|_K:  1.397e-03  alpha:  9.372e-02  linmin: -6.423e-02  cgtest:  3.929e-01  t[s]:   1560.15
LCAOMinimize: 	Wrong curvature in test step, increasing alphaT to 2.811451e-01.
	FillingsUpdate:  mu: -0.145500000  nElectrons: 226.000000  magneticMoment: [ Abs: 0.00522  Tot: -0.00099 ]
LCAOMinimize: Iter:   7  G: -352.3185857952785796  |grad|_K:  1.862e-03  alpha: -4.523e+00  linmin: -2.831e-02  cgtest: -3.951e-01  t[s]:   1708.22
LCAOMinimize: 	Step increased G by 1.647909e+01, reducing alpha to 8.704093e-03.
	FillingsUpdate:  mu: -0.145500000  nElectrons: 226.000000  magneticMoment: [ Abs: 0.00516  Tot: -0.00094 ]
LCAOMinimize: Iter:   8  G: -352.3411854660145650  |grad|_K:  1.495e-03  alpha:  8.704e-03  linmin:  5.760e-02  cgtest:  1.007e+00  t[s]:   1972.30
LCAOMinimize: Encountered beta<0, resetting CG.
LCAOMinimize: 	Predicted alpha/alphaT>3.000000, increasing alphaT to 2.611228e-02.
LCAOMinimize: 	Predicted alpha/alphaT>3.000000, increasing alphaT to 7.833683e-02.
	FillingsUpdate:  mu: -0.145500000  nElectrons: 226.000000  magneticMoment: [ Abs: 0.00467  Tot: -0.00007 ]
LCAOMinimize: Iter:   9  G: -352.3763073194185722  |grad|_K:  1.444e-03  alpha:  1.168e-01  linmin:  4.461e-02  cgtest: -7.717e-01  t[s]:   2201.41
LCAOMinimize: 	Bad step direction: g.d > 0.
LCAOMinimize: 	Undoing step.
LCAOMinimize: 	Step failed: resetting search direction.
	FillingsUpdate:  mu: -0.145500000  nElectrons: 226.000000  magneticMoment: [ Abs: 0.00467  Tot: -0.00007 ]
LCAOMinimize: Iter:  10  G: -352.3763073194185722  |grad|_K:  1.444e-03  alpha:  0.000e+00
	FillingsUpdate:  mu: -0.145500000  nElectrons: 226.000000  magneticMoment: [ Abs: 0.00506  Tot: -0.00054 ]
LCAOMinimize: Iter:  11  G: -352.4533259953672655  |grad|_K:  3.802e-04  alpha:  5.033e-02  linmin: -9.906e-02  cgtest:  6.545e-01  t[s]:   2466.07
LCAOMinimize: Encountered beta<0, resetting CG.
	FillingsUpdate:  mu: -0.145500000  nElectrons: 226.000000  magneticMoment: [ Abs: 0.00522  Tot: -0.00073 ]
LCAOMinimize: Iter:  12  G: -352.4564844982241425  |grad|_K:  1.820e-04  alpha:  5.165e-02  linmin:  1.100e-02  cgtest: -4.852e-02  t[s]:   2617.11
LCAOMinimize: 	Predicted alpha/alphaT>3.000000, increasing alphaT to 1.549493e-01.
	FillingsUpdate:  mu: -0.145500000  nElectrons: 226.000000  magneticMoment: [ Abs: 0.00584  Tot: -0.00123 ]
LCAOMinimize: Iter:  13  G: -352.4595305425052629  |grad|_K:  7.215e-05  alpha:  2.214e-01  linmin: -1.419e-02  cgtest:  3.528e-01  t[s]:   2807.41
	FillingsUpdate:  mu: -0.145500000  nElectrons: 226.000000  magneticMoment: [ Abs: 0.00629  Tot: -0.00157 ]
LCAOMinimize: Iter:  14  G: -352.4598534061731243  |grad|_K:  1.018e-04  alpha:  1.385e-01  linmin:  6.110e-03  cgtest: -1.123e-01  t[s]:   2959.30
	FillingsUpdate:  mu: -0.145500000  nElectrons: 226.000000  magneticMoment: [ Abs: 0.00788  Tot: -0.00284 ]
LCAOMinimize: Iter:  15  G: -352.4603050321937872  |grad|_K:  6.361e-05  alpha:  1.192e-01  linmin: -2.312e-04  cgtest:  6.964e-01  t[s]:   3111.46
LCAOMinimize: Encountered beta<0, resetting CG.
	FillingsUpdate:  mu: -0.145500000  nElectrons: 226.000000  magneticMoment: [ Abs: 0.00844  Tot: -0.00332 ]
LCAOMinimize: Iter:  16  G: -352.4603837064218510  |grad|_K:  3.769e-05  alpha:  5.392e-02  linmin: -3.408e-02  cgtest:  2.318e-01  t[s]:   3263.35
LCAOMinimize: 	Predicted alpha/alphaT>3.000000, increasing alphaT to 1.617677e-01.
	FillingsUpdate:  mu: -0.145500000  nElectrons: 226.000000  magneticMoment: [ Abs: 0.01067  Tot: -0.00503 ]
LCAOMinimize: Iter:  17  G: -352.4605020718595938  |grad|_K:  2.634e-05  alpha:  1.823e-01  linmin:  8.110e-03  cgtest: -3.233e-01  t[s]:   3453.89
	FillingsUpdate:  mu: -0.145500000  nElectrons: 226.000000  magneticMoment: [ Abs: 0.01221  Tot: -0.00621 ]
LCAOMinimize: Iter:  18  G: -352.4605112297394953  |grad|_K:  1.784e-05  alpha:  5.868e-02  linmin: -2.799e-02  cgtest:  5.162e-01  t[s]:   3605.79
LCAOMinimize: 	Predicted alpha/alphaT>3.000000, increasing alphaT to 1.760371e-01.
	FillingsUpdate:  mu: -0.145500000  nElectrons: 226.000000  magneticMoment: [ Abs: 0.02191  Tot: -0.01335 ]
LCAOMinimize: Iter:  19  G: -352.4605540864067734  |grad|_K:  1.988e-05  alpha:  4.180e-01  linmin:  5.285e-02  cgtest: -5.106e-01  t[s]:   3797.60
	FillingsUpdate:  mu: -0.145500000  nElectrons: 226.000000  magneticMoment: [ Abs: 0.03158  Tot: -0.02035 ]
LCAOMinimize: Iter:  20  G: -352.4605623280658051  |grad|_K:  2.134e-05  alpha:  1.102e-01  linmin:  2.814e-03  cgtest:  9.355e-01  t[s]:   3949.96
	FillingsUpdate:  mu: -0.145500000  nElectrons: 226.000000  magneticMoment: [ Abs: 0.04062  Tot: -0.02693 ]
LCAOMinimize: Iter:  21  G: -352.4605828941390655  |grad|_K:  1.077e-05  alpha:  1.080e-01  linmin: -6.414e-02  cgtest:  6.648e-01  t[s]:   4101.78
LCAOMinimize: Encountered beta<0, resetting CG.
LCAOMinimize: 	Wrong curvature in test step, increasing alphaT to 3.240905e-01.
	FillingsUpdate:  mu: -0.145500000  nElectrons: 226.000000  magneticMoment: [ Abs: 0.05031  Tot: -0.03383 ]
LCAOMinimize: Iter:  22  G: -352.4605946143702795  |grad|_K:  1.251e-05  alpha: -5.235e-01  linmin: -1.951e-02  cgtest:  2.408e-01  t[s]:   4250.80
	FillingsUpdate:  mu: -0.145500000  nElectrons: 226.000000  magneticMoment: [ Abs: 0.10771  Tot: -0.07542 ]
LCAOMinimize: Iter:  23  G: -352.4606102017330613  |grad|_K:  2.909e-05  alpha:  2.658e-01  linmin: -2.385e-02  cgtest: -9.933e-02  t[s]:   4402.79
LCAOMinimize: 	Predicted alpha/alphaT>3.000000, increasing alphaT to 7.975131e-01.
	FillingsUpdate:  mu: -0.145500000  nElectrons: 226.000000  magneticMoment: [ Abs: 0.27745  Tot: -0.20371 ]
LCAOMinimize: Iter:  24  G: -352.4607721808131942  |grad|_K:  8.075e-05  alpha:  1.186e-01  linmin: -4.513e-02  cgtest:  1.054e+00  t[s]:   4592.75
	FillingsUpdate:  mu: -0.145500000  nElectrons: 226.000000  magneticMoment: [ Abs: 0.68652  Tot: -0.57044 ]
LCAOMinimize: Iter:  25  G: -352.4614796528668990  |grad|_K:  2.165e-04  alpha:  7.063e-02  linmin:  9.633e-03  cgtest:  1.155e+00  t[s]:   4749.58
	FillingsUpdate:  mu: -0.145500000  nElectrons: 226.000000  magneticMoment: [ Abs: 0.81789  Tot: -0.69910 ]
LCAOMinimize: Iter:  26  G: -352.4615776910106320  |grad|_K:  2.424e-04  alpha:  9.697e-03  linmin:  1.455e-02  cgtest:  1.107e+00  t[s]:   4901.22
LCAOMinimize: 	Predicted alpha/alphaT>3.000000, increasing alphaT to 2.909234e-02.
	FillingsUpdate:  mu: -0.145500000  nElectrons: 226.000000  magneticMoment: [ Abs: 0.79768  Tot: -0.68467 ]
LCAOMinimize: Iter:  27  G: -352.4635869184764374  |grad|_K:  1.262e-04  alpha:  8.320e-02  linmin:  7.647e-03  cgtest:  3.210e-02  t[s]:   5091.99
	FillingsUpdate:  mu: -0.145500000  nElectrons: 226.000000  magneticMoment: [ Abs: 0.86868  Tot: -0.75710 ]
LCAOMinimize: Iter:  28  G: -352.4645310656329684  |grad|_K:  5.394e-05  alpha:  1.461e-01  linmin:  6.919e-03  cgtest: -8.951e-02  t[s]:   5244.54
	FillingsUpdate:  mu: -0.145500000  nElectrons: 226.000000  magneticMoment: [ Abs: 0.94703  Tot: -0.82379 ]
LCAOMinimize: Iter:  29  G: -352.4648867199410915  |grad|_K:  8.237e-05  alpha:  4.023e-01  linmin:  3.208e-02  cgtest: -2.445e-01  t[s]:   5397.68
	FillingsUpdate:  mu: -0.145500000  nElectrons: 226.000000  magneticMoment: [ Abs: 1.07556  Tot: -0.90147 ]
LCAOMinimize: Iter:  30  G: -352.4652570469395982  |grad|_K:  6.909e-05  alpha:  2.284e-01  linmin:  4.809e-02  cgtest:  7.948e-01  t[s]:   5555.15
LCAOMinimize: None of the convergence criteria satisfied after 30 iterations.
----- createFluidSolver() ----- (Fluid-side solver setup)
   Initializing fluid molecule 'H2O'
     Initializing site 'O'
       Electron density: proportional to exp(-r/0.36935)*erfc((r-0.51523)/0.36823) with norm 6.826
       Charge density: gaussian nuclear width 0.478731 with net site charge 0.826
       Polarizability: cuspless exponential with width 0.32 and norm 3.73
       Hard sphere radius: 2.57003 bohrs
       Positions in reference frame:
         [ +0.000000 +0.000000 +0.000000 ]
     Initializing site 'H'
       Electron density: proportional to exp(-r/0.34641)*erfc((r-0)/0.390882) with norm 0.587
       Charge density: gaussian nuclear width 0.377945 with net site charge -0.413
       Polarizability: cuspless exponential with width 0.39 and norm 3.3
       Positions in reference frame:
         [ +0.000000 -1.441945 +1.122523 ]
         [ +0.000000 +1.441945 +1.122523 ]
     Net charge: 0   dipole magnitude: 0.927204
     Initializing spherical shell mfKernel with radius 2.61727 Bohr
     deltaS corrections:
       site 'O': -7.54299
       site 'H': -6.83917
   Initializing fluid molecule 'Na+'
     Initializing site 'Na'
       Electron density: proportional to exp(-r/0.19682)*erfc((r-0.71491)/0.41314) with norm 8.1383
       Charge density: gaussian nuclear width 0.365347 with net site charge -1
       Hard sphere radius: 1.86327 bohrs
       Positions in reference frame:
         [ +0.000000 +0.000000 +0.000000 ]
     Net charge: -1   dipole magnitude: 0
     Initializing gaussian mfKernel with width: 1.55004 Bohr
     deltaS corrections:
       site 'Na': -22.3555
   Initializing fluid molecule 'F-'
     Initializing site 'F'
       Electron density: proportional to exp(-r/0.38886)*erfc((r-0)/0.438782) with norm 8
       Charge density: gaussian nuclear width 0.374796 with net site charge 1
       Hard sphere radius: 2.39995 bohrs
       Positions in reference frame:
         [ +0.000000 +0.000000 +0.000000 ]
     Net charge: 1   dipole magnitude: 0
     Initializing gaussian mfKernel with width: 1.59012 Bohr
     deltaS corrections:
       site 'F': -9.04335

Correction to mu due to finite nuclear width = -0.0110869
   Cavity determined by nc: 0.00142 and sigma: 0.707107
   Nonlocal vdW cavity from gaussian model electron density with norm = 8 and sigma = 0.993594 bohr
   Charge asymmetry in cavity with sensitivity pCavity = 36.5 e-bohr/Eh
   Electrostatic cavity expanded by eta = 1.46 bohrs
   Weighted density cavitation model constrained by Nbulk: 0.0049383 bohr^-3, Pvap: 3.14029 kPa, Rvdw: 2.61727 bohr and sigmaBulk: 4.62e-05 Eh/bohr^2 at T: 298 K.
   Weighted density dispersion model using vdW pair potentials with single solvent site with sqrtC6eff: 0.77 SI.
WARNING: Vibrations: switching off translationSym and rotationSym since useConstraints is on.

---- Citations for features of the code used in this run ----

   Software package:
      R. Sundararaman, K. Letchworth-Weaver, K.A. Schwarz, D. Gunceler, Y. Ozhabes and T.A. Arias, 'JDFTx: software for joint density-functional theory', SoftwareX 6, 278 (2017)

   gga-PBE exchange-correlation functional:
      J.P. Perdew, K. Burke and M. Ernzerhof, Phys. Rev. Lett. 77, 3865 (1996)

   Pseudopotentials:
      KF Garrity, JW Bennett, KM Rabe and D Vanderbilt, Comput. Mater. Sci. 81, 446 (2014)

   DFT-D3 dispersion correction:
      S. Grimme, J. Antony, S. Ehrlich and H. Krieg, J. Chem. Phys. 132, 154104 (2010)

   DFT-D2 dispersion correction:
      S. Grimme, J. Comput. Chem. 27, 1787 (2006)

   Charge-asymmetric nonlocally-determined local-electric (CANDLE) solvation model:
      R. Sundararaman and W.A. Goddard III, J. Chem. Phys. 142, 064107 (2015)

   Total energy minimization with Auxiliary Hamiltonian:
      C. Freysoldt, S. Boeck, and J. Neugebauer, Phys. Rev. B 79, 241103(R) (2009)

   Grand-canonical (fixed-potential) DFT:
      R. Sundararaman, W. A. Goddard III and T. A. Arias, J. Chem. Phys. 146, 114104 (2017)

   Linear-tetrahedron sampling for density of states:
      G. Lehmann and M. Taut, Phys. status solidi (b) 54, 469 (1972)

This list may not be complete. Please suggest additional citations or
report any other bugs at https://github.com/shankar1729/jdftx/issues

Initialization completed successfully at t[s]:   5575.22

------ Vibrations::calculate() -------
WARNING: Vibrations module is experimental. Please report bugs!
Compare results with and without symmetries and report discrepancies.
Degrees of freedom: 15 total, 15 symmetry-independent.

Computing DFT-D3 correction:
# coordination-number C 3.300 3.321 3.334 3.331 3.312 3.291 3.318 3.522 3.329 3.313 3.303 3.335 3.301 3.300 3.323 3.665 3.264 3.300 3.318 3.332 3.326 3.303 3.300 3.327 3.334 3.319 3.300 3.269 3.521 3.323 3.302 3.306 3.315 3.300 3.312 3.326 3.653 3.327 3.288 3.312 3.330 3.332 3.322 3.300 2.012
# coordination-number N 3.169 3.177 3.186 3.182
# coordination-number Ti 6.447
# coordination-number O 1.023 1.991
# coordination-number H 0.992 0.993
# diagonal-C6 C 24.28 24.07 23.93 23.97 24.16 24.37 24.10 21.31 23.98 24.16 24.25 23.92 24.27 24.29 24.05 19.60 24.60 24.28 24.10 23.96 24.02 24.25 24.28 24.01 23.93 24.10 24.28 24.56 21.33 24.05 24.27 24.22 24.14 24.28 24.16 24.02 19.71 24.01 24.40 24.17 23.97 23.95 24.06 24.28 29.47
# diagonal-C6 N 15.60 15.60 15.60 15.60
# diagonal-C6 Ti 321.59
# diagonal-C6 O 12.79 10.41
# diagonal-C6 H 3.09 3.09
EvdW_6 =   -0.042972
EvdW_8 =   -0.033190
Fluid solver invoked on fresh (random / LCAO) wavefunctions
Running a vacuum solve first:

-------- Initial electronic minimization -----------
	FillingsUpdate:  mu: -0.178645677  nElectrons: 226.000000  magneticMoment: [ Abs: 1.07556  Tot: -0.90147 ]
ElecMinimize: Iter:   0  G: -352.464602479102552  |grad|_K:  1.442e-04  alpha:  1.000e+00
	FillingsUpdate:  mu: -0.102161978  nElectrons: 226.000000  magneticMoment: [ Abs: 1.14843  Tot: -0.93663 ]
	SubspaceRotationAdjust: set factor to 1.01
ElecMinimize: Iter:   1  G: -355.440296129751573  |grad|_K:  4.599e-05  alpha:  6.844e-01  linmin:  1.175e-04  t[s]:   5818.82
	FillingsUpdate:  mu: -0.050301885  nElectrons: 226.000000  magneticMoment: [ Abs: 1.37176  Tot: -1.22974 ]
	SubspaceRotationAdjust: set factor to 0.725
ElecMinimize: Iter:   2  G: -355.554323554805876  |grad|_K:  4.975e-05  alpha:  2.179e-01  linmin: -1.440e-04  t[s]:   5966.87
	FillingsUpdate:  mu: -0.059933955  nElectrons: 226.000000  magneticMoment: [ Abs: 1.32154  Tot: -1.14861 ]
	SubspaceRotationAdjust: set factor to 0.611
ElecMinimize: Iter:   3  G: -355.702247602418083  |grad|_K:  1.777e-05  alpha:  2.664e-01  linmin: -1.049e-04  t[s]:   6114.66
	FillingsUpdate:  mu: -0.081111965  nElectrons: 226.000000  magneticMoment: [ Abs: 1.32556  Tot: -1.11072 ]
	SubspaceRotationAdjust: set factor to 0.553
ElecMinimize: Iter:   4  G: -355.745541104238839  |grad|_K:  1.388e-05  alpha:  6.246e-01  linmin:  9.874e-06  t[s]:   6262.91
	FillingsUpdate:  mu: -0.059338294  nElectrons: 226.000000  magneticMoment: [ Abs: 1.48084  Tot: -1.30827 ]
	SubspaceRotationAdjust: set factor to 0.368
ElecMinimize: Iter:   5  G: -355.755734245448991  |grad|_K:  1.178e-05  alpha:  2.658e-01  linmin:  3.796e-04  t[s]:   6411.22
	FillingsUpdate:  mu: -0.060766022  nElectrons: 226.000000  magneticMoment: [ Abs: 1.50069  Tot: -1.31871 ]
	SubspaceRotationAdjust: set factor to 0.481
ElecMinimize: Iter:   6  G: -355.765437941384448  |grad|_K:  5.995e-06  alpha:  3.613e-01  linmin: -2.656e-05  t[s]:   6559.66
	FillingsUpdate:  mu: -0.069713039  nElectrons: 226.000000  magneticMoment: [ Abs: 1.48775  Tot: -1.29191 ]
	SubspaceRotationAdjust: set factor to 0.38
ElecMinimize: Iter:   7  G: -355.769143844962912  |grad|_K:  5.312e-06  alpha:  4.852e-01  linmin:  3.672e-05  t[s]:   6707.84
	FillingsUpdate:  mu: -0.061873597  nElectrons: 226.000000  magneticMoment: [ Abs: 1.55777  Tot: -1.37183 ]
	SubspaceRotationAdjust: set factor to 0.32
ElecMinimize: Iter:   8  G: -355.770717407482152  |grad|_K:  2.903e-06  alpha:  2.663e-01  linmin:  3.569e-05  t[s]:   6856.14
	FillingsUpdate:  mu: -0.062357526  nElectrons: 226.000000  magneticMoment: [ Abs: 1.60843  Tot: -1.42500 ]
	SubspaceRotationAdjust: set factor to 0.355
ElecMinimize: Iter:   9  G: -355.771676771488842  |grad|_K:  2.184e-06  alpha:  5.417e-01  linmin:  2.635e-06  t[s]:   7004.55
	FillingsUpdate:  mu: -0.065386316  nElectrons: 226.000000  magneticMoment: [ Abs: 1.63341  Tot: -1.44745 ]
	SubspaceRotationAdjust: set factor to 0.33
ElecMinimize: Iter:  10  G: -355.772232512068399  |grad|_K:  1.833e-06  alpha:  5.510e-01  linmin:  1.549e-06  t[s]:   7153.00
	FillingsUpdate:  mu: -0.063565878  nElectrons: 226.000000  magneticMoment: [ Abs: 1.66575  Tot: -1.47743 ]
	SubspaceRotationAdjust: set factor to 0.314
ElecMinimize: Iter:  11  G: -355.772545412137845  |grad|_K:  1.373e-06  alpha:  4.406e-01  linmin: -6.241e-07  t[s]:   7301.80
	FillingsUpdate:  mu: -0.064351057  nElectrons: 226.000000  magneticMoment: [ Abs: 1.69155  Tot: -1.49892 ]
	SubspaceRotationAdjust: set factor to 0.329
ElecMinimize: Iter:  12  G: -355.772788746632330  |grad|_K:  1.156e-06  alpha:  6.102e-01  linmin:  8.090e-06  t[s]:   7450.03
	FillingsUpdate:  mu: -0.065586709  nElectrons: 226.000000  magneticMoment: [ Abs: 1.71118  Tot: -1.51415 ]
	SubspaceRotationAdjust: set factor to 0.338
ElecMinimize: Iter:  13  G: -355.772939301472206  |grad|_K:  9.177e-07  alpha:  5.341e-01  linmin:  9.429e-06  t[s]:   7598.49
	FillingsUpdate:  mu: -0.064492294  nElectrons: 226.000000  magneticMoment: [ Abs: 1.72798  Tot: -1.52627 ]
	SubspaceRotationAdjust: set factor to 0.295
ElecMinimize: Iter:  14  G: -355.773024188219210  |grad|_K:  6.982e-07  alpha:  4.790e-01  linmin: -2.589e-05  t[s]:   7746.68
	FillingsUpdate:  mu: -0.064911922  nElectrons: 226.000000  magneticMoment: [ Abs: 1.73594  Tot: -1.53079 ]
	SubspaceRotationAdjust: set factor to 0.327
ElecMinimize: Iter:  15  G: -355.773080601273875  |grad|_K:  5.141e-07  alpha:  5.432e-01  linmin:  3.663e-05  t[s]:   7894.78
	FillingsUpdate:  mu: -0.065582769  nElectrons: 226.000000  magneticMoment: [ Abs: 1.73932  Tot: -1.53219 ]
	SubspaceRotationAdjust: set factor to 0.306
ElecMinimize: Iter:  16  G: -355.773110697373113  |grad|_K:  4.037e-07  alpha:  5.389e-01  linmin:  5.908e-06  t[s]:   8042.83
	FillingsUpdate:  mu: -0.064986838  nElectrons: 226.000000  magneticMoment: [ Abs: 1.74351  Tot: -1.53428 ]
	SubspaceRotationAdjust: set factor to 0.269
ElecMinimize: Iter:  17  G: -355.773128332985664  |grad|_K:  3.089e-07  alpha:  5.118e-01  linmin: -2.348e-06  t[s]:   8190.84
	FillingsUpdate:  mu: -0.065053165  nElectrons: 226.000000  magneticMoment: [ Abs: 1.74511  Tot: -1.53468 ]
	SubspaceRotationAdjust: set factor to 0.308
ElecMinimize: Iter:  18  G: -355.773139046621907  |grad|_K:  2.161e-07  alpha:  5.298e-01  linmin:  3.419e-07  t[s]:   8339.21
	FillingsUpdate:  mu: -0.065404787  nElectrons: 226.000000  magneticMoment: [ Abs: 1.74489  Tot: -1.53402 ]
	SubspaceRotationAdjust: set factor to 0.279
ElecMinimize: Iter:  19  G: -355.773145041190617  |grad|_K:  1.858e-07  alpha:  6.064e-01  linmin:  1.064e-06  t[s]:   8487.83
	FillingsUpdate:  mu: -0.065174460  nElectrons: 226.000000  magneticMoment: [ Abs: 1.74513  Tot: -1.53381 ]
	SubspaceRotationAdjust: set factor to 0.278
ElecMinimize: Iter:  20  G: -355.773148858057652  |grad|_K:  1.347e-07  alpha:  5.225e-01  linmin: -3.668e-07  t[s]:   8636.27
	FillingsUpdate:  mu: -0.065126402  nElectrons: 226.000000  magneticMoment: [ Abs: 1.74477  Tot: -1.53336 ]
	SubspaceRotationAdjust: set factor to 0.294
ElecMinimize: Iter:  21  G: -355.773151174176235  |grad|_K:  1.070e-07  alpha:  6.028e-01  linmin: -6.359e-07  t[s]:   8784.39
	FillingsUpdate:  mu: -0.065229736  nElectrons: 226.000000  magneticMoment: [ Abs: 1.74398  Tot: -1.53274 ]
	SubspaceRotationAdjust: set factor to 0.29
ElecMinimize: Iter:  22  G: -355.773152538700117  |grad|_K:  8.361e-08  alpha:  5.633e-01  linmin:  1.633e-08  t[s]:   8932.89
	FillingsUpdate:  mu: -0.065173647  nElectrons: 226.000000  magneticMoment: [ Abs: 1.74335  Tot: -1.53234 ]
	SubspaceRotationAdjust: set factor to 0.285
ElecMinimize: Iter:  23  G: -355.773153392201493  |grad|_K:  6.660e-08  alpha:  5.767e-01  linmin: -6.013e-07  t[s]:   9081.66
	FillingsUpdate:  mu: -0.065205700  nElectrons: 226.000000  magneticMoment: [ Abs: 1.74253  Tot: -1.53187 ]
	SubspaceRotationAdjust: set factor to 0.294
ElecMinimize: Iter:  24  G: -355.773153950828316  |grad|_K:  5.267e-08  alpha:  5.948e-01  linmin:  1.003e-06  t[s]:   9230.27
	FillingsUpdate:  mu: -0.065214558  nElectrons: 226.000000  magneticMoment: [ Abs: 1.74192  Tot: -1.53160 ]
	SubspaceRotationAdjust: set factor to 0.303
ElecMinimize: Iter:  25  G: -355.773154276855109  |grad|_K:  3.980e-08  alpha:  5.555e-01  linmin:  3.996e-07  t[s]:   9378.56
	FillingsUpdate:  mu: -0.065159454  nElectrons: 226.000000  magneticMoment: [ Abs: 1.74157  Tot: -1.53153 ]
	SubspaceRotationAdjust: set factor to 0.28
ElecMinimize: Iter:  26  G: -355.773154473984164  |grad|_K:  3.190e-08  alpha:  5.877e-01  linmin:  5.191e-07  t[s]:   9526.73
	FillingsUpdate:  mu: -0.065195189  nElectrons: 226.000000  magneticMoment: [ Abs: 1.74118  Tot: -1.53140 ]
	SubspaceRotationAdjust: set factor to 0.274
ElecMinimize: Iter:  27  G: -355.773154586552494  |grad|_K:  2.329e-08  alpha:  5.227e-01  linmin:  6.996e-07  t[s]:   9674.90
	FillingsUpdate:  mu: -0.065207000  nElectrons: 226.000000  magneticMoment: [ Abs: 1.74093  Tot: -1.53136 ]
	SubspaceRotationAdjust: set factor to 0.294
ElecMinimize: Iter:  28  G: -355.773154657088639  |grad|_K:  1.825e-08  alpha:  6.149e-01  linmin:  4.499e-07  t[s]:   9823.45
	FillingsUpdate:  mu: -0.065174833  nElectrons: 226.000000  magneticMoment: [ Abs: 1.74087  Tot: -1.53143 ]
	SubspaceRotationAdjust: set factor to 0.262
ElecMinimize: Iter:  29  G: -355.773154697687062  |grad|_K:  1.471e-08  alpha:  5.762e-01  linmin:  1.202e-06  t[s]:   9972.30
ElecMinimize: Converged (|Delta G|<1.000000e-07 for 2 iters).
Setting wave functions to eigenvectors of Hamiltonian
Converging empty states (this may take a while): |deigs|: 9.522e-03
Vacuum energy after initial minimize, F = -355.773154697687062

Shifting auxilliary hamiltonian by -0.080325 to set nElectrons=226.000000

-------- Electronic minimization -----------
	Linear fluid (dielectric constant: 78.4, screening length: 8.12261 Bohr) occupying 0.713023 of unit cell:	Completed after 23 iterations at t[s]:  10764.80
	FillingsUpdate:  mu: -0.145500000  nElectrons: 226.000000  magneticMoment: [ Abs: 1.74062  Tot: -1.53135 ]
ElecMinimize: Iter:   0  G: -355.772653548937058  |grad|_K:  6.038e-06  alpha:  1.000e+00
	Linear fluid (dielectric constant: 78.4, screening length: 8.12261 Bohr) occupying 0.714303 of unit cell:	Completed after 20 iterations at t[s]:  10911.60
	Linear fluid (dielectric constant: 78.4, screening length: 8.12261 Bohr) occupying 0.713687 of unit cell:	Completed after 17 iterations at t[s]:  10972.87
	FillingsUpdate:  mu: -0.145500000  nElectrons: 225.681386  magneticMoment: [ Abs: 1.51495  Tot: -1.23376 ]
	SubspaceRotationAdjust: set factor to 0.202
ElecMinimize: Iter:   1  G: -355.775692692790926  |grad|_K:  6.522e-06  alpha:  4.820e-01  linmin:  2.879e-03  t[s]:  11037.97
	Linear fluid (dielectric constant: 78.4, screening length: 8.12261 Bohr) occupying 0.714722 of unit cell:	Completed after 15 iterations at t[s]:  11105.26
	Linear fluid (dielectric constant: 78.4, screening length: 8.12261 Bohr) occupying 0.715137 of unit cell:	Completed after 11 iterations at t[s]:  11161.42
	FillingsUpdate:  mu: -0.145500000  nElectrons: 225.468888  magneticMoment: [ Abs: 1.41737  Tot: -1.02536 ]
	SubspaceRotationAdjust: set factor to 0.191
ElecMinimize: Iter:   2  G: -355.780040885326116  |grad|_K:  5.480e-06  alpha:  7.157e-01  linmin:  1.130e-03  t[s]:  11226.26
	Linear fluid (dielectric constant: 78.4, screening length: 8.12261 Bohr) occupying 0.716240 of unit cell:	Completed after 18 iterations at t[s]:  11297.48
	Linear fluid (dielectric constant: 78.4, screening length: 8.12261 Bohr) occupying 0.715836 of unit cell:	Completed after 15 iterations at t[s]:  11357.38
	FillingsUpdate:  mu: -0.145500000  nElectrons: 225.446901  magneticMoment: [ Abs: 1.40871  Tot: -1.00631 ]
	SubspaceRotationAdjust: set factor to 0.229
ElecMinimize: Iter:   3  G: -355.782239986765603  |grad|_K:  2.916e-06  alpha:  4.437e-01  linmin: -8.352e-06  t[s]:  11427.44
	Linear fluid (dielectric constant: 78.4, screening length: 8.12261 Bohr) occupying 0.716057 of unit cell:	Completed after 11 iterations at t[s]:  11496.19
	Linear fluid (dielectric constant: 78.4, screening length: 8.12261 Bohr) occupying 0.716045 of unit cell:	Completed after 3 iterations at t[s]:  11548.82
	FillingsUpdate:  mu: -0.145500000  nElectrons: 225.443134  magneticMoment: [ Abs: 1.39285  Tot: -1.00385 ]
	SubspaceRotationAdjust: set factor to 0.253
ElecMinimize: Iter:   4  G: -355.782994777319402  |grad|_K:  2.264e-06  alpha:  4.196e-01  linmin: -8.489e-05  t[s]:  11619.15
	Linear fluid (dielectric constant: 78.4, screening length: 8.12261 Bohr) occupying 0.716166 of unit cell:	Completed after 9 iterations at t[s]:  11685.91
	Linear fluid (dielectric constant: 78.4, screening length: 8.12261 Bohr) occupying 0.716183 of unit cell:	Completed after 3 iterations at t[s]:  11738.81
	FillingsUpdate:  mu: -0.145500000  nElectrons: 225.442186  magneticMoment: [ Abs: 1.37272  Tot: -1.00276 ]
	SubspaceRotationAdjust: set factor to 0.307
ElecMinimize: Iter:   5  G: -355.783524923451864  |grad|_K:  1.385e-06  alpha:  4.832e-01  linmin: -7.859e-05  t[s]:  11808.80
	Linear fluid (dielectric constant: 78.4, screening length: 8.12261 Bohr) occupying 0.716216 of unit cell:	Completed after 7 iterations at t[s]:  11873.90
	Linear fluid (dielectric constant: 78.4, screening length: 8.12261 Bohr) occupying 0.716217 of unit cell:	Completed after 2 iterations at t[s]:  11926.80
	FillingsUpdate:  mu: -0.145500000  nElectrons: 225.442655  magneticMoment: [ Abs: 1.35712  Tot: -1.00190 ]
	SubspaceRotationAdjust: set factor to 0.346
ElecMinimize: Iter:   6  G: -355.783731164518258  |grad|_K:  1.323e-06  alpha:  5.047e-01  linmin: -1.356e-05  t[s]:  11995.91
	Linear fluid (dielectric constant: 78.4, screening length: 8.12261 Bohr) occupying 0.716227 of unit cell:	Completed after 6 iterations at t[s]:  12060.82
	Linear fluid (dielectric constant: 78.4, screening length: 8.12261 Bohr) occupying 0.716227 of unit cell:	Completed after 2 iterations at t[s]:  12112.07
	FillingsUpdate:  mu: -0.145500000  nElectrons: 225.443290  magneticMoment: [ Abs: 1.33047  Tot: -1.00100 ]
	SubspaceRotationAdjust: set factor to 0.437
ElecMinimize: Iter:   7  G: -355.783926175131000  |grad|_K:  9.072e-07  alpha:  5.249e-01  linmin: -6.334e-05  t[s]:  12180.75
	Linear fluid (dielectric constant: 78.4, screening length: 8.12261 Bohr) occupying 0.716220 of unit cell:	Completed after 4 iterations at t[s]:  12241.75
	Linear fluid (dielectric constant: 78.4, screening length: 8.12261 Bohr) occupying 0.716221 of unit cell:	Completed after 2 iterations at t[s]:  12292.66
	FillingsUpdate:  mu: -0.145500000  nElectrons: 225.443613  magneticMoment: [ Abs: 1.31075  Tot: -1.00061 ]
	SubspaceRotationAdjust: set factor to 0.467
ElecMinimize: Iter:   8  G: -355.784008989275435  |grad|_K:  8.311e-07  alpha:  4.714e-01  linmin: -3.044e-05  t[s]:  12360.78
	Linear fluid (dielectric constant: 78.4, screening length: 8.12261 Bohr) occupying 0.716216 of unit cell:	Completed after 7 iterations at t[s]:  12424.33
	Linear fluid (dielectric constant: 78.4, screening length: 8.12261 Bohr) occupying 0.716216 of unit cell:	Completed after 1 iterations at t[s]:  12474.32
	FillingsUpdate:  mu: -0.145500000  nElectrons: 225.443918  magneticMoment: [ Abs: 1.28975  Tot: -1.00032 ]
	SubspaceRotationAdjust: set factor to 0.496
ElecMinimize: Iter:   9  G: -355.784075244131031  |grad|_K:  5.265e-07  alpha:  4.503e-01  linmin:  1.845e-05  t[s]:  12542.17
	Linear fluid (dielectric constant: 78.4, screening length: 8.12261 Bohr) occupying 0.716217 of unit cell:	Completed after 3 iterations at t[s]:  12602.34
	Linear fluid (dielectric constant: 78.4, screening length: 8.12261 Bohr) occupying 0.716217 of unit cell:	Completed after 0 iterations at t[s]:  12652.01
	FillingsUpdate:  mu: -0.145500000  nElectrons: 225.444018  magneticMoment: [ Abs: 1.27442  Tot: -1.00022 ]
	SubspaceRotationAdjust: set factor to 0.592
ElecMinimize: Iter:  10  G: -355.784102942403763  |grad|_K:  3.997e-07  alpha:  4.734e-01  linmin: -5.782e-05  t[s]:  12720.85
	Linear fluid (dielectric constant: 78.4, screening length: 8.12261 Bohr) occupying 0.716218 of unit cell:	Completed after 7 iterations at t[s]:  12785.79
	Linear fluid (dielectric constant: 78.4, screening length: 8.12261 Bohr) occupying 0.716218 of unit cell:	Completed after 2 iterations at t[s]:  12838.09
	FillingsUpdate:  mu: -0.145500000  nElectrons: 225.444038  magneticMoment: [ Abs: 1.26281  Tot: -1.00018 ]
	SubspaceRotationAdjust: set factor to 0.529
ElecMinimize: Iter:  11  G: -355.784115873704707  |grad|_K:  2.833e-07  alpha:  3.802e-01  linmin: -2.666e-07  t[s]:  12908.30
	Linear fluid (dielectric constant: 78.4, screening length: 8.12261 Bohr) occupying 0.716217 of unit cell:	Completed after 3 iterations at t[s]:  12969.68
	Linear fluid (dielectric constant: 78.4, screening length: 8.12261 Bohr) occupying 0.716217 of unit cell:	Completed after 0 iterations at t[s]:  13019.10
	FillingsUpdate:  mu: -0.145500000  nElectrons: 225.444047  magneticMoment: [ Abs: 1.25340  Tot: -1.00016 ]
	SubspaceRotationAdjust: set factor to 0.694
ElecMinimize: Iter:  12  G: -355.784123114435317  |grad|_K:  1.753e-07  alpha:  4.250e-01  linmin: -1.810e-04  t[s]:  13088.60
	Linear fluid (dielectric constant: 78.4, screening length: 8.12261 Bohr) occupying 0.716215 of unit cell:	Completed after 3 iterations at t[s]:  13149.66
	Linear fluid (dielectric constant: 78.4, screening length: 8.12261 Bohr) occupying 0.716215 of unit cell:	Completed after 0 iterations at t[s]:  13198.68
	FillingsUpdate:  mu: -0.145500000  nElectrons: 225.444035  magneticMoment: [ Abs: 1.24765  Tot: -1.00016 ]
	SubspaceRotationAdjust: set factor to 0.6
ElecMinimize: Iter:  13  G: -355.784125948419330  |grad|_K:  1.589e-07  alpha:  4.249e-01  linmin: -2.509e-04  t[s]:  13268.07
	Linear fluid (dielectric constant: 78.4, screening length: 8.12261 Bohr) occupying 0.716211 of unit cell:	Completed after 3 iterations at t[s]:  13329.45
	Linear fluid (dielectric constant: 78.4, screening length: 8.12261 Bohr) occupying 0.716212 of unit cell:	Completed after 2 iterations at t[s]:  13381.52
	FillingsUpdate:  mu: -0.145500000  nElectrons: 225.444005  magneticMoment: [ Abs: 1.24272  Tot: -1.00017 ]
	SubspaceRotationAdjust: set factor to 0.618
ElecMinimize: Iter:  14  G: -355.784127555259886  |grad|_K:  9.375e-08  alpha:  2.890e-01  linmin:  6.637e-05  t[s]:  13450.75
	Linear fluid (dielectric constant: 78.4, screening length: 8.12261 Bohr) occupying 0.716210 of unit cell:	Completed after 1 iterations at t[s]:  13510.12
	Linear fluid (dielectric constant: 78.4, screening length: 8.12261 Bohr) occupying 0.716210 of unit cell:	Completed after 1 iterations at t[s]:  13561.93
	FillingsUpdate:  mu: -0.145500000  nElectrons: 225.443978  magneticMoment: [ Abs: 1.23863  Tot: -1.00018 ]
	SubspaceRotationAdjust: set factor to 0.728
ElecMinimize: Iter:  15  G: -355.784128423014749  |grad|_K:  6.498e-08  alpha:  4.857e-01  linmin: -2.433e-06  t[s]:  13630.69
	Linear fluid (dielectric constant: 78.4, screening length: 8.12261 Bohr) occupying 0.716208 of unit cell:	Completed after 2 iterations at t[s]:  13691.24
	Linear fluid (dielectric constant: 78.4, screening length: 8.12261 Bohr) occupying 0.716208 of unit cell:	Completed after 0 iterations at t[s]:  13740.07
	FillingsUpdate:  mu: -0.145500000  nElectrons: 225.443967  magneticMoment: [ Abs: 1.23621  Tot: -1.00018 ]
	SubspaceRotationAdjust: set factor to 0.704
ElecMinimize: Iter:  16  G: -355.784128826712447  |grad|_K:  5.119e-08  alpha:  4.522e-01  linmin: -1.626e-05  t[s]:  13808.47
	Linear fluid (dielectric constant: 78.4, screening length: 8.12261 Bohr) occupying 0.716208 of unit cell:	Completed after 2 iterations at t[s]:  13868.78
	Linear fluid (dielectric constant: 78.4, screening length: 8.12261 Bohr) occupying 0.716208 of unit cell:	Completed after 0 iterations at t[s]:  13918.64
	FillingsUpdate:  mu: -0.145500000  nElectrons: 225.443961  magneticMoment: [ Abs: 1.23470  Tot: -1.00018 ]
	SubspaceRotationAdjust: set factor to 0.631
ElecMinimize: Iter:  17  G: -355.784129019908676  |grad|_K:  3.617e-08  alpha:  3.414e-01  linmin:  3.124e-04  t[s]:  13988.31
	Linear fluid (dielectric constant: 78.4, screening length: 8.12261 Bohr) occupying 0.716208 of unit cell:	Completed after 0 iterations at t[s]:  14045.31
	Linear fluid (dielectric constant: 78.4, screening length: 8.12261 Bohr) occupying 0.716208 of unit cell:	Completed after 1 iterations at t[s]:  14095.80
	FillingsUpdate:  mu: -0.145500000  nElectrons: 225.443962  magneticMoment: [ Abs: 1.23328  Tot: -1.00018 ]
	SubspaceRotationAdjust: set factor to 0.599
ElecMinimize: Iter:  18  G: -355.784129126454445  |grad|_K:  2.614e-08  alpha:  5.736e-01  linmin:  6.908e-04  t[s]:  14164.71
	Linear fluid (dielectric constant: 78.4, screening length: 8.12261 Bohr) occupying 0.716209 of unit cell:	Completed after 0 iterations at t[s]:  14222.65
	Linear fluid (dielectric constant: 78.4, screening length: 8.12261 Bohr) occupying 0.716209 of unit cell:	Completed after 0 iterations at t[s]:  14271.26
	FillingsUpdate:  mu: -0.145500000  nElectrons: 225.443967  magneticMoment: [ Abs: 1.23255  Tot: -1.00018 ]
	SubspaceRotationAdjust: set factor to 0.77
ElecMinimize: Iter:  19  G: -355.784129188879149  |grad|_K:  1.915e-08  alpha:  5.333e-01  linmin: -2.269e-04  t[s]:  14339.96
	Linear fluid (dielectric constant: 78.4, screening length: 8.12261 Bohr) occupying 0.716209 of unit cell:	Completed after 0 iterations at t[s]:  14398.16
	Linear fluid (dielectric constant: 78.4, screening length: 8.12261 Bohr) occupying 0.716209 of unit cell:	Completed after 1 iterations at t[s]:  14448.26
ElecMinimize: 	Step increased G by 6.798928e-09, reducing alpha to 6.617668e-02.
	Linear fluid (dielectric constant: 78.4, screening length: 8.12261 Bohr) occupying 0.716209 of unit cell:	Completed after 0 iterations at t[s]:  14561.56
	FillingsUpdate:  mu: -0.145500000  nElectrons: 225.443967  magneticMoment: [ Abs: 1.23251  Tot: -1.00018 ]
	SubspaceRotationAdjust: set factor to 0.689
ElecMinimize: Iter:  20  G: -355.784129206728835  |grad|_K:  2.377e-08  alpha:  6.618e-02  linmin: -4.364e-04  t[s]:  14630.47
ElecMinimize: Converged (|Delta G|<1.000000e-07 for 2 iters).
Setting wave functions to eigenvectors of Hamiltonian
Converging empty states (this may take a while): |deigs|: 9.727e-04
Single-point solvation energy estimate, DeltaG = -0.010974509041773

Computing DFT-D3 correction:
# coordination-number C 3.300 3.321 3.334 3.331 3.312 3.291 3.318 3.522 3.329 3.313 3.303 3.335 3.301 3.300 3.323 3.665 3.264 3.300 3.318 3.332 3.326 3.303 3.300 3.327 3.334 3.319 3.300 3.269 3.521 3.323 3.302 3.306 3.315 3.300 3.312 3.326 3.653 3.327 3.288 3.312 3.330 3.332 3.322 3.300 2.012
# coordination-number N 3.169 3.177 3.186 3.182
# coordination-number Ti 6.447
# coordination-number O 1.023 1.991
# coordination-number H 0.992 0.993
# diagonal-C6 C 24.28 24.07 23.93 23.97 24.16 24.37 24.10 21.31 23.98 24.16 24.25 23.92 24.27 24.29 24.05 19.60 24.60 24.28 24.10 23.96 24.02 24.25 24.28 24.01 23.93 24.10 24.28 24.56 21.33 24.05 24.27 24.22 24.14 24.28 24.16 24.02 19.71 24.01 24.40 24.17 23.97 23.95 24.06 24.28 29.47
# diagonal-C6 N 15.60 15.60 15.60 15.60
# diagonal-C6 Ti 321.59
# diagonal-C6 O 12.79 10.41
# diagonal-C6 H 3.09 3.09
EvdW_6 =   -0.042972
EvdW_8 =   -0.033190
Completed 1 of 16 configurations.

Computing DFT-D3 correction:
# coordination-number C 3.300 3.321 3.334 3.331 3.312 3.291 3.318 3.522 3.329 3.313 3.303 3.335 3.301 3.300 3.323 3.665 3.264 3.300 3.318 3.332 3.326 3.303 3.300 3.327 3.334 3.319 3.300 3.269 3.521 3.323 3.302 3.306 3.315 3.300 3.312 3.326 3.653 3.327 3.288 3.312 3.330 3.332 3.322 3.300 2.012
# coordination-number N 3.169 3.177 3.186 3.182
# coordination-number Ti 6.447
# coordination-number O 1.023 1.991
# coordination-number H 0.992 0.993
# diagonal-C6 C 24.28 24.07 23.93 23.97 24.16 24.37 24.10 21.31 23.98 24.16 24.25 23.92 24.27 24.29 24.05 19.60 24.60 24.28 24.10 23.96 24.02 24.25 24.28 24.01 23.93 24.10 24.28 24.56 21.33 24.05 24.27 24.22 24.14 24.28 24.16 24.02 19.71 24.01 24.40 24.17 23.97 23.95 24.06 24.28 29.46
# diagonal-C6 N 15.60 15.60 15.60 15.60
# diagonal-C6 Ti 321.59
# diagonal-C6 O 12.79 10.41
# diagonal-C6 H 3.09 3.09
EvdW_6 =   -0.042972
EvdW_8 =   -0.033192
Shifting auxilliary hamiltonian by 0.000023 to set nElectrons=225.443967

-------- Electronic minimization -----------
	Linear fluid (dielectric constant: 78.4, screening length: 8.12261 Bohr) occupying 0.716206 of unit cell:	Completed after 5 iterations at t[s]:  15693.67
	FillingsUpdate:  mu: -0.145500000  nElectrons: 225.443967  magneticMoment: [ Abs: 1.23303  Tot: -1.00018 ]
ElecMinimize: Iter:   0  G: -355.784093928307641  |grad|_K:  3.745e-07  alpha:  1.000e+00
	Linear fluid (dielectric constant: 78.4, screening length: 8.12261 Bohr) occupying 0.716199 of unit cell:	Completed after 5 iterations at t[s]:  15833.11
	Linear fluid (dielectric constant: 78.4, screening length: 8.12261 Bohr) occupying 0.716202 of unit cell:	Completed after 3 iterations at t[s]:  15885.25
	FillingsUpdate:  mu: -0.145500000  nElectrons: 225.443973  magneticMoment: [ Abs: 1.23280  Tot: -1.00018 ]
	SubspaceRotationAdjust: set factor to 0.562
ElecMinimize: Iter:   1  G: -355.784110752163656  |grad|_K:  2.782e-07  alpha:  5.659e-01  linmin:  1.082e-05  t[s]:  15954.47
	Linear fluid (dielectric constant: 78.4, screening length: 8.12261 Bohr) occupying 0.716200 of unit cell:	Completed after 7 iterations at t[s]:  16018.61
	Linear fluid (dielectric constant: 78.4, screening length: 8.12261 Bohr) occupying 0.716201 of unit cell:	Completed after 4 iterations at t[s]:  16071.33
	FillingsUpdate:  mu: -0.145500000  nElectrons: 225.444002  magneticMoment: [ Abs: 1.23347  Tot: -1.00017 ]
	SubspaceRotationAdjust: set factor to 0.412
ElecMinimize: Iter:   2  G: -355.784114838076221  |grad|_K:  1.295e-07  alpha:  2.498e-01  linmin:  2.240e-05  t[s]:  16139.69
	Linear fluid (dielectric constant: 78.4, screening length: 8.12261 Bohr) occupying 0.716201 of unit cell:	Completed after 2 iterations at t[s]:  16198.99
	Linear fluid (dielectric constant: 78.4, screening length: 8.12261 Bohr) occupying 0.716200 of unit cell:	Completed after 2 iterations at t[s]:  16250.28
	FillingsUpdate:  mu: -0.145500000  nElectrons: 225.444018  magneticMoment: [ Abs: 1.23352  Tot: -1.00017 ]
	SubspaceRotationAdjust: set factor to 0.438
ElecMinimize: Iter:   3  G: -355.784116697717252  |grad|_K:  6.767e-08  alpha:  5.082e-01  linmin: -1.832e-04  t[s]:  16318.84
	Linear fluid (dielectric constant: 78.4, screening length: 8.12261 Bohr) occupying 0.716199 of unit cell:	Completed after 2 iterations at t[s]:  16378.62
	Linear fluid (dielectric constant: 78.4, screening length: 8.12261 Bohr) occupying 0.716199 of unit cell:	Completed after 0 iterations at t[s]:  16427.19
	FillingsUpdate:  mu: -0.145500000  nElectrons: 225.444029  magneticMoment: [ Abs: 1.23351  Tot: -1.00017 ]
	SubspaceRotationAdjust: set factor to 0.515
ElecMinimize: Iter:   4  G: -355.784117348865720  |grad|_K:  3.645e-08  alpha:  6.258e-01  linmin: -2.712e-04  t[s]:  16495.80
	Linear fluid (dielectric constant: 78.4, screening length: 8.12261 Bohr) occupying 0.716199 of unit cell:	Completed after 2 iterations at t[s]:  16555.63
	Linear fluid (dielectric constant: 78.4, screening length: 8.12261 Bohr) occupying 0.716199 of unit cell:	Completed after 0 iterations at t[s]:  16604.19
	FillingsUpdate:  mu: -0.145500000  nElectrons: 225.444036  magneticMoment: [ Abs: 1.23357  Tot: -1.00016 ]
	SubspaceRotationAdjust: set factor to 0.427
ElecMinimize: Iter:   5  G: -355.784117486859770  |grad|_K:  3.683e-08  alpha:  4.153e-01  linmin:  5.518e-04  t[s]:  16672.89
	Linear fluid (dielectric constant: 78.4, screening length: 8.12261 Bohr) occupying 0.716199 of unit cell:	Completed after 1 iterations at t[s]:  16731.45
	Linear fluid (dielectric constant: 78.4, screening length: 8.12261 Bohr) occupying 0.716199 of unit cell:	Completed after 0 iterations at t[s]:  16779.67
	FillingsUpdate:  mu: -0.145500000  nElectrons: 225.444040  magneticMoment: [ Abs: 1.23354  Tot: -1.00016 ]
	SubspaceRotationAdjust: set factor to 0.6
ElecMinimize: Iter:   6  G: -355.784117545775871  |grad|_K:  1.922e-08  alpha:  3.151e-01  linmin: -3.448e-04  t[s]:  16848.21
	Linear fluid (dielectric constant: 78.4, screening length: 8.12261 Bohr) occupying 0.716199 of unit cell:	Completed after 0 iterations at t[s]:  16905.65
	Linear fluid (dielectric constant: 78.4, screening length: 8.12261 Bohr) occupying 0.716199 of unit cell:	Completed after 0 iterations at t[s]:  16954.80
	FillingsUpdate:  mu: -0.145500000  nElectrons: 225.444042  magneticMoment: [ Abs: 1.23351  Tot: -1.00016 ]
	SubspaceRotationAdjust: set factor to 0.706
ElecMinimize: Iter:   7  G: -355.784117578819632  |grad|_K:  1.173e-08  alpha:  4.006e-01  linmin: -1.780e-03  t[s]:  17023.31
ElecMinimize: Converged (|Delta G|<1.000000e-07 for 2 iters).
Setting wave functions to eigenvectors of Hamiltonian
Converging empty states (this may take a while): |deigs|: 1.603e-07

Computing DFT-D3 correction:
# coordination-number C 3.300 3.321 3.334 3.331 3.312 3.291 3.318 3.522 3.329 3.313 3.303 3.335 3.301 3.300 3.323 3.665 3.264 3.300 3.318 3.332 3.326 3.303 3.300 3.327 3.334 3.319 3.300 3.269 3.521 3.323 3.302 3.306 3.315 3.300 3.312 3.326 3.653 3.327 3.288 3.312 3.330 3.332 3.322 3.300 2.012
# coordination-number N 3.169 3.177 3.186 3.182
# coordination-number Ti 6.447
# coordination-number O 1.023 1.991
# coordination-number H 0.992 0.993
# diagonal-C6 C 24.28 24.07 23.93 23.97 24.16 24.37 24.10 21.31 23.98 24.16 24.25 23.92 24.27 24.29 24.05 19.60 24.60 24.28 24.10 23.96 24.02 24.25 24.28 24.01 23.93 24.10 24.28 24.56 21.33 24.05 24.27 24.22 24.14 24.28 24.16 24.02 19.71 24.01 24.40 24.17 23.97 23.95 24.06 24.28 29.46
# diagonal-C6 N 15.60 15.60 15.60 15.60
# diagonal-C6 Ti 321.59
# diagonal-C6 O 12.79 10.41
# diagonal-C6 H 3.09 3.09
EvdW_6 =   -0.042972
EvdW_8 =   -0.033192
Completed 2 of 16 configurations.

Computing DFT-D3 correction:
# coordination-number C 3.300 3.321 3.334 3.331 3.312 3.291 3.318 3.522 3.329 3.313 3.303 3.335 3.301 3.300 3.323 3.665 3.264 3.300 3.318 3.332 3.326 3.303 3.300 3.327 3.334 3.319 3.300 3.269 3.521 3.323 3.302 3.306 3.315 3.300 3.312 3.326 3.653 3.327 3.288 3.312 3.330 3.332 3.322 3.300 2.012
# coordination-number N 3.169 3.177 3.186 3.182
# coordination-number Ti 6.447
# coordination-number O 1.023 1.991
# coordination-number H 0.992 0.993
# diagonal-C6 C 24.28 24.07 23.93 23.97 24.16 24.37 24.10 21.31 23.98 24.16 24.25 23.92 24.27 24.29 24.05 19.60 24.60 24.28 24.10 23.96 24.02 24.25 24.28 24.01 23.93 24.10 24.28 24.56 21.33 24.05 24.27 24.22 24.14 24.28 24.16 24.02 19.71 24.01 24.40 24.17 23.97 23.95 24.06 24.28 29.46
# diagonal-C6 N 15.60 15.60 15.60 15.60
# diagonal-C6 Ti 321.59
# diagonal-C6 O 12.79 10.41
# diagonal-C6 H 3.09 3.09
EvdW_6 =   -0.042973
EvdW_8 =   -0.033189
Shifting auxilliary hamiltonian by 0.000002 to set nElectrons=225.444042

-------- Electronic minimization -----------
	Linear fluid (dielectric constant: 78.4, screening length: 8.12261 Bohr) occupying 0.716192 of unit cell:	Completed after 6 iterations at t[s]:  17315.00
	FillingsUpdate:  mu: -0.145500000  nElectrons: 225.444042  magneticMoment: [ Abs: 1.23337  Tot: -1.00016 ]
ElecMinimize: Iter:   0  G: -355.784081888458672  |grad|_K:  4.448e-07  alpha:  1.000e+00
	Linear fluid (dielectric constant: 78.4, screening length: 8.12261 Bohr) occupying 0.716192 of unit cell:	Completed after 4 iterations at t[s]:  17453.72
	Linear fluid (dielectric constant: 78.4, screening length: 8.12261 Bohr) occupying 0.716192 of unit cell:	Completed after 2 iterations at t[s]:  17504.99
	FillingsUpdate:  mu: -0.145500000  nElectrons: 225.444045  magneticMoment: [ Abs: 1.23347  Tot: -1.00017 ]
	SubspaceRotationAdjust: set factor to 0.878
ElecMinimize: Iter:   1  G: -355.784112885194190  |grad|_K:  1.826e-07  alpha:  7.397e-01  linmin:  8.406e-05  t[s]:  17573.62
	Linear fluid (dielectric constant: 78.4, screening length: 8.12261 Bohr) occupying 0.716192 of unit cell:	Completed after 4 iterations at t[s]:  17634.89
	Linear fluid (dielectric constant: 78.4, screening length: 8.12261 Bohr) occupying 0.716192 of unit cell:	Completed after 2 iterations at t[s]:  17685.72
	FillingsUpdate:  mu: -0.145500000  nElectrons: 225.444034  magneticMoment: [ Abs: 1.23306  Tot: -1.00017 ]
	SubspaceRotationAdjust: set factor to 0.659
ElecMinimize: Iter:   2  G: -355.784115809212381  |grad|_K:  1.866e-07  alpha:  4.165e-01  linmin:  1.159e-04  t[s]:  17754.38
	Linear fluid (dielectric constant: 78.4, screening length: 8.12261 Bohr) occupying 0.716193 of unit cell:	Completed after 3 iterations at t[s]:  17814.81
	Linear fluid (dielectric constant: 78.4, screening length: 8.12261 Bohr) occupying 0.716192 of unit cell:	Completed after 1 iterations at t[s]:  17864.80
	FillingsUpdate:  mu: -0.145500000  nElectrons: 225.444042  magneticMoment: [ Abs: 1.23336  Tot: -1.00017 ]
	SubspaceRotationAdjust: set factor to 0.365
ElecMinimize: Iter:   3  G: -355.784117970642797  |grad|_K:  6.576e-08  alpha:  2.966e-01  linmin:  2.605e-04  t[s]:  17934.06
	Linear fluid (dielectric constant: 78.4, screening length: 8.12261 Bohr) occupying 0.716192 of unit cell:	Completed after 2 iterations at t[s]:  17993.15
	Linear fluid (dielectric constant: 78.4, screening length: 8.12261 Bohr) occupying 0.716192 of unit cell:	Completed after 0 iterations at t[s]:  18041.66
	FillingsUpdate:  mu: -0.145500000  nElectrons: 225.444041  magneticMoment: [ Abs: 1.23321  Tot: -1.00017 ]
	SubspaceRotationAdjust: set factor to 0.447
ElecMinimize: Iter:   4  G: -355.784118477484753  |grad|_K:  2.639e-08  alpha:  4.979e-01  linmin: -6.059e-03  t[s]:  18110.59
	Linear fluid (dielectric constant: 78.4, screening length: 8.12261 Bohr) occupying 0.716192 of unit cell:	Completed after 1 iterations at t[s]:  18169.15
	Linear fluid (dielectric constant: 78.4, screening length: 8.12261 Bohr) occupying 0.716192 of unit cell:	Completed after 0 iterations at t[s]:  18217.63
	FillingsUpdate:  mu: -0.145500000  nElectrons: 225.444040  magneticMoment: [ Abs: 1.23316  Tot: -1.00017 ]
	SubspaceRotationAdjust: set factor to 0.45
ElecMinimize: Iter:   5  G: -355.784118549234051  |grad|_K:  2.481e-08  alpha:  4.378e-01  linmin: -9.003e-03  t[s]:  18286.27
	Linear fluid (dielectric constant: 78.4, screening length: 8.12261 Bohr) occupying 0.716192 of unit cell:	Completed after 0 iterations at t[s]:  18343.16
	Linear fluid (dielectric constant: 78.4, screening length: 8.12261 Bohr) occupying 0.716192 of unit cell:	Completed after 1 iterations at t[s]:  18393.20
	FillingsUpdate:  mu: -0.145500000  nElectrons: 225.444042  magneticMoment: [ Abs: 1.23316  Tot: -1.00017 ]
	SubspaceRotationAdjust: set factor to 0.422
ElecMinimize: Iter:   6  G: -355.784118610820428  |grad|_K:  2.886e-08  alpha:  6.355e-01  linmin:  4.070e-03  t[s]:  18462.00
ElecMinimize: Converged (|Delta G|<1.000000e-07 for 2 iters).
Setting wave functions to eigenvectors of Hamiltonian
Converging empty states (this may take a while): |deigs|: 5.530e-08

Computing DFT-D3 correction:
# coordination-number C 3.300 3.321 3.334 3.331 3.312 3.291 3.318 3.522 3.329 3.313 3.303 3.335 3.301 3.300 3.323 3.665 3.264 3.300 3.318 3.332 3.326 3.303 3.300 3.327 3.334 3.319 3.300 3.269 3.521 3.323 3.302 3.306 3.315 3.300 3.312 3.326 3.653 3.327 3.288 3.312 3.330 3.332 3.322 3.300 2.012
# coordination-number N 3.169 3.177 3.186 3.182
# coordination-number Ti 6.447
# coordination-number O 1.023 1.991
# coordination-number H 0.992 0.993
# diagonal-C6 C 24.28 24.07 23.93 23.97 24.16 24.37 24.10 21.31 23.98 24.16 24.25 23.92 24.27 24.29 24.05 19.60 24.60 24.28 24.10 23.96 24.02 24.25 24.28 24.01 23.93 24.10 24.28 24.56 21.33 24.05 24.27 24.22 24.14 24.28 24.16 24.02 19.71 24.01 24.40 24.17 23.97 23.95 24.06 24.28 29.46
# diagonal-C6 N 15.60 15.60 15.60 15.60
# diagonal-C6 Ti 321.59
# diagonal-C6 O 12.79 10.41
# diagonal-C6 H 3.09 3.09
EvdW_6 =   -0.042973
EvdW_8 =   -0.033189
Completed 3 of 16 configurations.

Computing DFT-D3 correction:
# coordination-number C 3.300 3.321 3.334 3.331 3.312 3.291 3.318 3.522 3.329 3.313 3.303 3.335 3.301 3.300 3.323 3.665 3.264 3.300 3.318 3.332 3.326 3.303 3.300 3.327 3.334 3.319 3.300 3.269 3.521 3.323 3.302 3.306 3.315 3.300 3.312 3.326 3.653 3.327 3.288 3.312 3.330 3.332 3.322 3.300 2.011
# coordination-number N 3.169 3.177 3.185 3.182
# coordination-number Ti 6.446
# coordination-number O 1.023 1.991
# coordination-number H 0.992 0.993
# diagonal-C6 C 24.28 24.07 23.93 23.97 24.16 24.37 24.10 21.31 23.98 24.16 24.25 23.92 24.27 24.29 24.05 19.60 24.60 24.28 24.10 23.96 24.02 24.25 24.28 24.01 23.93 24.10 24.28 24.56 21.33 24.05 24.27 24.22 24.14 24.28 24.16 24.02 19.71 24.01 24.40 24.17 23.97 23.95 24.06 24.28 29.47
# diagonal-C6 N 15.60 15.60 15.60 15.60
# diagonal-C6 Ti 321.59
# diagonal-C6 O 12.79 10.41
# diagonal-C6 H 3.09 3.09
EvdW_6 =   -0.042972
EvdW_8 =   -0.033187
Shifting auxilliary hamiltonian by -0.000009 to set nElectrons=225.444042

-------- Electronic minimization -----------
	Linear fluid (dielectric constant: 78.4, screening length: 8.12261 Bohr) occupying 0.716192 of unit cell:	Completed after 7 iterations at t[s]:  18726.88
	FillingsUpdate:  mu: -0.145500000  nElectrons: 225.444042  magneticMoment: [ Abs: 1.23291  Tot: -1.00017 ]
ElecMinimize: Iter:   0  G: -355.784022850811994  |grad|_K:  6.402e-07  alpha:  1.000e+00
	Linear fluid (dielectric constant: 78.4, screening length: 8.12261 Bohr) occupying 0.716206 of unit cell:	Completed after 7 iterations at t[s]:  18867.68
	Linear fluid (dielectric constant: 78.4, screening length: 8.12261 Bohr) occupying 0.716201 of unit cell:	Completed after 3 iterations at t[s]:  18920.15
	FillingsUpdate:  mu: -0.145500000  nElectrons: 225.444007  magneticMoment: [ Abs: 1.23228  Tot: -1.00017 ]
	SubspaceRotationAdjust: set factor to 0.458
ElecMinimize: Iter:   1  G: -355.784076656023501  |grad|_K:  3.060e-07  alpha:  6.206e-01  linmin:  8.834e-06  t[s]:  18988.78
	Linear fluid (dielectric constant: 78.4, screening length: 8.12261 Bohr) occupying 0.716206 of unit cell:	Completed after 4 iterations at t[s]:  19050.22
	Linear fluid (dielectric constant: 78.4, screening length: 8.12261 Bohr) occupying 0.716206 of unit cell:	Completed after 0 iterations at t[s]:  19098.56
	FillingsUpdate:  mu: -0.145500000  nElectrons: 225.443974  magneticMoment: [ Abs: 1.23201  Tot: -1.00017 ]
	SubspaceRotationAdjust: set factor to 0.529
ElecMinimize: Iter:   2  G: -355.784089112389665  |grad|_K:  1.716e-07  alpha:  6.286e-01  linmin: -9.798e-05  t[s]:  19167.56
	Linear fluid (dielectric constant: 78.4, screening length: 8.12261 Bohr) occupying 0.716209 of unit cell:	Completed after 3 iterations at t[s]:  19228.04
	Linear fluid (dielectric constant: 78.4, screening length: 8.12261 Bohr) occupying 0.716209 of unit cell:	Completed after 0 iterations at t[s]:  19276.28
	FillingsUpdate:  mu: -0.145500000  nElectrons: 225.443924  magneticMoment: [ Abs: 1.23145  Tot: -1.00018 ]
	SubspaceRotationAdjust: set factor to 0.492
ElecMinimize: Iter:   3  G: -355.784093245848567  |grad|_K:  1.345e-07  alpha:  6.577e-01  linmin: -1.257e-04  t[s]:  19345.05
	Linear fluid (dielectric constant: 78.4, screening length: 8.12261 Bohr) occupying 0.716213 of unit cell:	Completed after 3 iterations at t[s]:  19405.31
	Linear fluid (dielectric constant: 78.4, screening length: 8.12261 Bohr) occupying 0.716211 of unit cell:	Completed after 3 iterations at t[s]:  19457.25
	FillingsUpdate:  mu: -0.145500000  nElectrons: 225.443904  magneticMoment: [ Abs: 1.23164  Tot: -1.00019 ]
	SubspaceRotationAdjust: set factor to 0.398
ElecMinimize: Iter:   4  G: -355.784094599585046  |grad|_K:  6.231e-08  alpha:  3.463e-01  linmin:  2.248e-05  t[s]:  19525.91
	Linear fluid (dielectric constant: 78.4, screening length: 8.12261 Bohr) occupying 0.716212 of unit cell:	Completed after 0 iterations at t[s]:  19582.88
	Linear fluid (dielectric constant: 78.4, screening length: 8.12261 Bohr) occupying 0.716212 of unit cell:	Completed after 2 iterations at t[s]:  19633.82
	FillingsUpdate:  mu: -0.145500000  nElectrons: 225.443872  magneticMoment: [ Abs: 1.23175  Tot: -1.00020 ]
	SubspaceRotationAdjust: set factor to 0.372
ElecMinimize: Iter:   5  G: -355.784095156604394  |grad|_K:  3.664e-08  alpha:  8.035e-01  linmin:  5.758e-04  t[s]:  19702.53
	Linear fluid (dielectric constant: 78.4, screening length: 8.12261 Bohr) occupying 0.716212 of unit cell:	Completed after 1 iterations at t[s]:  19761.47
	Linear fluid (dielectric constant: 78.4, screening length: 8.12261 Bohr) occupying 0.716212 of unit cell:	Completed after 0 iterations at t[s]:  19809.93
	FillingsUpdate:  mu: -0.145500000  nElectrons: 225.443862  magneticMoment: [ Abs: 1.23195  Tot: -1.00020 ]
	SubspaceRotationAdjust: set factor to 0.327
ElecMinimize: Iter:   6  G: -355.784095306867982  |grad|_K:  2.525e-08  alpha:  6.058e-01  linmin:  2.536e-04  t[s]:  19878.92
[...]
disp C   0.000000000000000   0.000000000000000   0.000000000000000
disp C   0.000000000000000   0.000000000000000   0.000000000000000
disp C   0.000000000000000   0.000000000000000   0.000000000000000
disp C   0.000000000000000   0.000000000000000   0.000000000000000
disp C   0.000000000000000   0.000000000000000   0.000000000000000
disp C  -0.004306616069553  -0.000827315826010  -0.004405171553748
disp N   0.000000000000000   0.000000000000000   0.000000000000000
disp N   0.000000000000000   0.000000000000000   0.000000000000000
disp N   0.000000000000000   0.000000000000000   0.000000000000000
disp N   0.000000000000000   0.000000000000000   0.000000000000000
disp Ti   0.000000000000000   0.000000000000000   0.000000000000000
disp O   0.000376015620126   0.000602256382811  -0.000557685614932
disp O  -0.000740492568327  -0.000230231748594  -0.000734331881718
disp H  -0.002695002383062  -0.003465857659324   0.001970162539728
disp H  -0.002845107840268  -0.000530876250625  -0.004611875000364

Real mode 8:
Frequency: 0.007046 Eh [ 1546 cm^-1 ]
Degeneracy: 1 of 1
IR intensity: 0.1342 e^2/amu [ 130.8 km/mol ]
Displacements:
disp C   0.000000000000000   0.000000000000000   0.000000000000000
disp C   0.000000000000000   0.000000000000000   0.000000000000000
disp C   0.000000000000000   0.000000000000000   0.000000000000000
disp C   0.000000000000000   0.000000000000000   0.000000000000000
disp C   0.000000000000000   0.000000000000000   0.000000000000000
disp C   0.000000000000000   0.000000000000000   0.000000000000000
disp C   0.000000000000000   0.000000000000000   0.000000000000000
disp C   0.000000000000000   0.000000000000000   0.000000000000000
disp C   0.000000000000000   0.000000000000000   0.000000000000000
disp C   0.000000000000000   0.000000000000000   0.000000000000000
disp C   0.000000000000000   0.000000000000000   0.000000000000000
disp C   0.000000000000000   0.000000000000000   0.000000000000000
disp C   0.000000000000000   0.000000000000000   0.000000000000000
disp C   0.000000000000000   0.000000000000000   0.000000000000000
disp C   0.000000000000000   0.000000000000000   0.000000000000000
disp C   0.000000000000000   0.000000000000000   0.000000000000000
disp C   0.000000000000000   0.000000000000000   0.000000000000000
disp C   0.000000000000000   0.000000000000000   0.000000000000000
disp C   0.000000000000000   0.000000000000000   0.000000000000000
disp C   0.000000000000000   0.000000000000000   0.000000000000000
disp C   0.000000000000000   0.000000000000000   0.000000000000000
disp C   0.000000000000000   0.000000000000000   0.000000000000000
disp C   0.000000000000000   0.000000000000000   0.000000000000000
disp C   0.000000000000000   0.000000000000000   0.000000000000000
disp C   0.000000000000000   0.000000000000000   0.000000000000000
disp C   0.000000000000000   0.000000000000000   0.000000000000000
disp C   0.000000000000000   0.000000000000000   0.000000000000000
disp C   0.000000000000000   0.000000000000000   0.000000000000000
disp C   0.000000000000000   0.000000000000000   0.000000000000000
disp C   0.000000000000000   0.000000000000000   0.000000000000000
disp C   0.000000000000000   0.000000000000000   0.000000000000000
disp C   0.000000000000000   0.000000000000000   0.000000000000000
disp C   0.000000000000000   0.000000000000000   0.000000000000000
disp C   0.000000000000000   0.000000000000000   0.000000000000000
disp C   0.000000000000000   0.000000000000000   0.000000000000000
disp C   0.000000000000000   0.000000000000000   0.000000000000000
disp C   0.000000000000000   0.000000000000000   0.000000000000000
disp C   0.000000000000000   0.000000000000000   0.000000000000000
disp C   0.000000000000000   0.000000000000000   0.000000000000000
disp C   0.000000000000000   0.000000000000000   0.000000000000000
disp C   0.000000000000000   0.000000000000000   0.000000000000000
disp C   0.000000000000000   0.000000000000000   0.000000000000000
disp C   0.000000000000000   0.000000000000000   0.000000000000000
disp C   0.000000000000000   0.000000000000000   0.000000000000000
disp C  -0.000020157708045   0.000016652071408  -0.000018088646869
disp N   0.000000000000000   0.000000000000000   0.000000000000000
disp N   0.000000000000000   0.000000000000000   0.000000000000000
disp N   0.000000000000000   0.000000000000000   0.000000000000000
disp N   0.000000000000000   0.000000000000000   0.000000000000000
disp Ti   0.000000000000000   0.000000000000000   0.000000000000000
disp O   0.000014995106503   0.000018427227255  -0.000032219163851
disp O  -0.000028196943461  -0.000552446593275   0.001477532540971
disp H   0.008340581189237   0.009358838832299  -0.009704978650899
disp H  -0.007559481686350  -0.001513288852143  -0.013926060351744

Real mode 9:
Frequency: 0.009035 Eh [ 1983 cm^-1 ]
Degeneracy: 1 of 1
IR intensity: 3.1389 e^2/amu [ 3060.1 km/mol ]
Displacements:
disp C   0.000000000000000   0.000000000000000   0.000000000000000
disp C   0.000000000000000   0.000000000000000   0.000000000000000
disp C   0.000000000000000   0.000000000000000   0.000000000000000
disp C   0.000000000000000   0.000000000000000   0.000000000000000
disp C   0.000000000000000   0.000000000000000   0.000000000000000
disp C   0.000000000000000   0.000000000000000   0.000000000000000
disp C   0.000000000000000   0.000000000000000   0.000000000000000
disp C   0.000000000000000   0.000000000000000   0.000000000000000
disp C   0.000000000000000   0.000000000000000   0.000000000000000
disp C   0.000000000000000   0.000000000000000   0.000000000000000
disp C   0.000000000000000   0.000000000000000   0.000000000000000
disp C   0.000000000000000   0.000000000000000   0.000000000000000
disp C   0.000000000000000   0.000000000000000   0.000000000000000
disp C   0.000000000000000   0.000000000000000   0.000000000000000
disp C   0.000000000000000   0.000000000000000   0.000000000000000
disp C   0.000000000000000   0.000000000000000   0.000000000000000
disp C   0.000000000000000   0.000000000000000   0.000000000000000
disp C   0.000000000000000   0.000000000000000   0.000000000000000
disp C   0.000000000000000   0.000000000000000   0.000000000000000
disp C   0.000000000000000   0.000000000000000   0.000000000000000
disp C   0.000000000000000   0.000000000000000   0.000000000000000
disp C   0.000000000000000   0.000000000000000   0.000000000000000
disp C   0.000000000000000   0.000000000000000   0.000000000000000
disp C   0.000000000000000   0.000000000000000   0.000000000000000
disp C   0.000000000000000   0.000000000000000   0.000000000000000
disp C   0.000000000000000   0.000000000000000   0.000000000000000
disp C   0.000000000000000   0.000000000000000   0.000000000000000
disp C   0.000000000000000   0.000000000000000   0.000000000000000
disp C   0.000000000000000   0.000000000000000   0.000000000000000
disp C   0.000000000000000   0.000000000000000   0.000000000000000
disp C   0.000000000000000   0.000000000000000   0.000000000000000
disp C   0.000000000000000   0.000000000000000   0.000000000000000
disp C   0.000000000000000   0.000000000000000   0.000000000000000
disp C   0.000000000000000   0.000000000000000   0.000000000000000
disp C   0.000000000000000   0.000000000000000   0.000000000000000
disp C   0.000000000000000   0.000000000000000   0.000000000000000
disp C   0.000000000000000   0.000000000000000   0.000000000000000
disp C   0.000000000000000   0.000000000000000   0.000000000000000
disp C   0.000000000000000   0.000000000000000   0.000000000000000
disp C   0.000000000000000   0.000000000000000   0.000000000000000
disp C   0.000000000000000   0.000000000000000   0.000000000000000
disp C   0.000000000000000   0.000000000000000   0.000000000000000
disp C   0.000000000000000   0.000000000000000   0.000000000000000
disp C   0.000000000000000   0.000000000000000   0.000000000000000
disp C   0.002504619525016   0.002301054385707  -0.003868745471487
disp N   0.000000000000000   0.000000000000000   0.000000000000000
disp N   0.000000000000000   0.000000000000000   0.000000000000000
disp N   0.000000000000000   0.000000000000000   0.000000000000000
disp N   0.000000000000000   0.000000000000000   0.000000000000000
disp Ti   0.000000000000000   0.000000000000000   0.000000000000000
disp O  -0.001837536547405  -0.001719381560064   0.002834050063642
disp O  -0.000032885259374   0.000003585909947   0.000006941875576
disp H   0.000025659677509  -0.000022707692182  -0.000034683218021
disp H   0.000032964681167  -0.000096883824214  -0.000094730086566

Real mode 10:
Frequency: 0.017169 Eh [ 3768 cm^-1 ]
Degeneracy: 1 of 1
IR intensity: 0.1008 e^2/amu [ 98.2 km/mol ]
Displacements:
disp C   0.000000000000000   0.000000000000000   0.000000000000000
disp C   0.000000000000000   0.000000000000000   0.000000000000000
disp C   0.000000000000000   0.000000000000000   0.000000000000000
disp C   0.000000000000000   0.000000000000000   0.000000000000000
disp C   0.000000000000000   0.000000000000000   0.000000000000000
disp C   0.000000000000000   0.000000000000000   0.000000000000000
disp C   0.000000000000000   0.000000000000000   0.000000000000000
disp C   0.000000000000000   0.000000000000000   0.000000000000000
disp C   0.000000000000000   0.000000000000000   0.000000000000000
disp C   0.000000000000000   0.000000000000000   0.000000000000000
disp C   0.000000000000000   0.000000000000000   0.000000000000000
disp C   0.000000000000000   0.000000000000000   0.000000000000000
disp C   0.000000000000000   0.000000000000000   0.000000000000000
disp C   0.000000000000000   0.000000000000000   0.000000000000000
disp C   0.000000000000000   0.000000000000000   0.000000000000000
disp C   0.000000000000000   0.000000000000000   0.000000000000000
disp C   0.000000000000000   0.000000000000000   0.000000000000000
disp C   0.000000000000000   0.000000000000000   0.000000000000000
disp C   0.000000000000000   0.000000000000000   0.000000000000000
disp C   0.000000000000000   0.000000000000000   0.000000000000000
disp C   0.000000000000000   0.000000000000000   0.000000000000000
disp C   0.000000000000000   0.000000000000000   0.000000000000000
disp C   0.000000000000000   0.000000000000000   0.000000000000000
disp C   0.000000000000000   0.000000000000000   0.000000000000000
disp C   0.000000000000000   0.000000000000000   0.000000000000000
disp C   0.000000000000000   0.000000000000000   0.000000000000000
disp C   0.000000000000000   0.000000000000000   0.000000000000000
disp C   0.000000000000000   0.000000000000000   0.000000000000000
disp C   0.000000000000000   0.000000000000000   0.000000000000000
disp C   0.000000000000000   0.000000000000000   0.000000000000000
disp C   0.000000000000000   0.000000000000000   0.000000000000000
disp C   0.000000000000000   0.000000000000000   0.000000000000000
disp C   0.000000000000000   0.000000000000000   0.000000000000000
disp C   0.000000000000000   0.000000000000000   0.000000000000000
disp C   0.000000000000000   0.000000000000000   0.000000000000000
disp C   0.000000000000000   0.000000000000000   0.000000000000000
disp C   0.000000000000000   0.000000000000000   0.000000000000000
disp C   0.000000000000000   0.000000000000000   0.000000000000000
disp C   0.000000000000000   0.000000000000000   0.000000000000000
disp C   0.000000000000000   0.000000000000000   0.000000000000000
disp C   0.000000000000000   0.000000000000000   0.000000000000000
disp C   0.000000000000000   0.000000000000000   0.000000000000000
disp C   0.000000000000000   0.000000000000000   0.000000000000000
disp C   0.000000000000000   0.000000000000000   0.000000000000000
disp C  -0.000008665843198   0.000000488438896  -0.000006348817886
disp N   0.000000000000000   0.000000000000000   0.000000000000000
disp N   0.000000000000000   0.000000000000000   0.000000000000000
disp N   0.000000000000000   0.000000000000000   0.000000000000000
disp N   0.000000000000000   0.000000000000000   0.000000000000000
disp Ti   0.000000000000000   0.000000000000000   0.000000000000000
disp O  -0.000000184566207   0.000001023352534  -0.000005214453246
disp O   0.000186031363080  -0.000282060061356   0.001187662632803
disp H  -0.011901218497829  -0.004650045215835  -0.013088493690526
disp H   0.009295713354496   0.008638866443957  -0.004944042925183

Real mode 11:
Frequency: 0.017541 Eh [ 3850 cm^-1 ]
Degeneracy: 1 of 1
IR intensity: 0.2339 e^2/amu [ 228.0 km/mol ]
Displacements:
disp C   0.000000000000000   0.000000000000000   0.000000000000000
disp C   0.000000000000000   0.000000000000000   0.000000000000000
disp C   0.000000000000000   0.000000000000000   0.000000000000000
disp C   0.000000000000000   0.000000000000000   0.000000000000000
disp C   0.000000000000000   0.000000000000000   0.000000000000000
disp C   0.000000000000000   0.000000000000000   0.000000000000000
disp C   0.000000000000000   0.000000000000000   0.000000000000000
disp C   0.000000000000000   0.000000000000000   0.000000000000000
disp C   0.000000000000000   0.000000000000000   0.000000000000000
disp C   0.000000000000000   0.000000000000000   0.000000000000000
disp C   0.000000000000000   0.000000000000000   0.000000000000000
disp C   0.000000000000000   0.000000000000000   0.000000000000000
disp C   0.000000000000000   0.000000000000000   0.000000000000000
disp C   0.000000000000000   0.000000000000000   0.000000000000000
disp C   0.000000000000000   0.000000000000000   0.000000000000000
disp C   0.000000000000000   0.000000000000000   0.000000000000000
disp C   0.000000000000000   0.000000000000000   0.000000000000000
disp C   0.000000000000000   0.000000000000000   0.000000000000000
disp C   0.000000000000000   0.000000000000000   0.000000000000000
disp C   0.000000000000000   0.000000000000000   0.000000000000000
disp C   0.000000000000000   0.000000000000000   0.000000000000000
disp C   0.000000000000000   0.000000000000000   0.000000000000000
disp C   0.000000000000000   0.000000000000000   0.000000000000000
disp C   0.000000000000000   0.000000000000000   0.000000000000000
disp C   0.000000000000000   0.000000000000000   0.000000000000000
disp C   0.000000000000000   0.000000000000000   0.000000000000000
disp C   0.000000000000000   0.000000000000000   0.000000000000000
disp C   0.000000000000000   0.000000000000000   0.000000000000000
disp C   0.000000000000000   0.000000000000000   0.000000000000000
disp C   0.000000000000000   0.000000000000000   0.000000000000000
disp C   0.000000000000000   0.000000000000000   0.000000000000000
disp C   0.000000000000000   0.000000000000000   0.000000000000000
disp C   0.000000000000000   0.000000000000000   0.000000000000000
disp C   0.000000000000000   0.000000000000000   0.000000000000000
disp C   0.000000000000000   0.000000000000000   0.000000000000000
disp C   0.000000000000000   0.000000000000000   0.000000000000000
disp C   0.000000000000000   0.000000000000000   0.000000000000000
disp C   0.000000000000000   0.000000000000000   0.000000000000000
disp C   0.000000000000000   0.000000000000000   0.000000000000000
disp C   0.000000000000000   0.000000000000000   0.000000000000000
disp C   0.000000000000000   0.000000000000000   0.000000000000000
disp C   0.000000000000000   0.000000000000000   0.000000000000000
disp C   0.000000000000000   0.000000000000000   0.000000000000000
disp C   0.000000000000000   0.000000000000000   0.000000000000000
disp C  -0.000014663020737  -0.000003818224004  -0.000018394370545
disp N   0.000000000000000   0.000000000000000   0.000000000000000
disp N   0.000000000000000   0.000000000000000   0.000000000000000
disp N   0.000000000000000   0.000000000000000   0.000000000000000
disp N   0.000000000000000   0.000000000000000   0.000000000000000
disp Ti   0.000000000000000   0.000000000000000   0.000000000000000
disp O  -0.000002527453829  -0.000002170349374  -0.000001379745434
disp O   0.001252363980763   0.000911148774945   0.000163867015750
disp H  -0.008258183729508  -0.002940144684525  -0.010052288694453
disp H  -0.011932066626666  -0.011393779585696   0.007461122783941

Vibrational free energy components at T = 298 K:
	ZPE:          0.029695
	Evib:         0.033071
	TSvib:        0.006257
	Avib:         0.026815


Dumping 'jdft.n_up' ... done
Dumping 'jdft.n_dn' ... done
Dumping 'jdft.tau_up' ... done
Dumping 'jdft.tau_dn' ... done
Dumping 'jdft.eigenvals' ... done
Dumping 'jdft.eigStats' ... 
	eMin: -2.277956 at state 9 ( [ +0.000000 +0.000000 +0.000000 ] spin -1 )
	HOMO: -0.151951 at state 4 ( [ +0.333333 +0.333333 +0.000000 ] spin 1 )
	mu  : -0.145500
	LUMO: -0.135790 at state 16 ( [ -0.333333 +0.333333 +0.000000 ] spin -1 )
	eMax: +0.017824 at state 0 ( [ +0.000000 +0.000000 +0.000000 ] spin 1 )
	HOMO-LUMO gap: +0.016161
	Optical gap  : +0.024297 at state 8 ( [ -0.333333 -0.333333 +0.000000 ] spin 1 )
Dumping 'jdft.kPts' ... done
Dumping 'jdft.dosUp' ... done.
Dumping 'jdft.dosDn' ... done.
End date and time: Wed Nov  9 23:57:17 2022  (Duration: 0-10:48:25.35)
Done!

PROFILER:             augmentDensityGrid     0.866694 +/-     1.108522 s, 2015 calls,   1746.387772 s total
PROFILER:         augmentDensityGridGrad     0.620587 +/-     0.802959 s, 1125 calls,    698.160771 s total
PROFILER:        augmentDensitySpherical     0.000600 +/-     0.000892 s, 2015 calls,      1.209169 s total
PROFILER:    augmentDensitySphericalGrad     0.000678 +/-     0.001698 s, 1555 calls,      1.054238 s total
PROFILER:                 augmentOverlap     1.805206 +/-     2.734030 s, 4120 calls,   7437.447976 s total
PROFILER:        ColumnBundle::randomize     0.006740 +/-     0.000000 s,    1 calls,      0.006740 s total
PROFILER:                     diagouterI    21.507274 +/-     4.154409 s,  406 calls,   8731.953342 s total
PROFILER:              EdensityAndVscloc     8.331458 +/-     5.669272 s,  404 calls,   3365.909202 s total
PROFILER:                     EnlAndGrad     0.001880 +/-     0.003002 s, 2155 calls,      4.050354 s total
PROFILER:            ExCorrCommunication     0.101860 +/-     0.119659 s, 2602 calls,    265.038470 s total
PROFILER:               ExCorrFunctional     0.029945 +/-     0.005989 s,  453 calls,     13.564955 s total
PROFILER:                    ExCorrTotal     0.921072 +/-     0.199970 s,  453 calls,    417.245432 s total
PROFILER:                   Idag_DiagV_I    35.501214 +/-    15.208844 s,  295 calls,  10472.858061 s total
PROFILER:                    initWeights     2.405562 +/-     0.000000 s,    1 calls,      2.405562 s total
PROFILER:                    inv(matrix)     0.003149 +/-     0.002221 s,  327 calls,      1.029876 s total
PROFILER:            matrix::diagonalize     0.013437 +/-     0.008619 s,  680 calls,      9.137001 s total
PROFILER:                    matrix::set     0.000002 +/-     0.000003 s, 40702 calls,      0.085944 s total
PROFILER:            orthoMatrix(matrix)     0.002626 +/-     0.002586 s,  398 calls,      1.045345 s total
PROFILER:     RadialFunctionR::transform     0.025122 +/-     0.189690 s,  151 calls,      3.793467 s total
PROFILER:                    reduceKmesh     0.000000 +/-     0.000000 s,    1 calls,      0.000000 s total
PROFILER:   VanDerWaalsD3::energyAndGrad     0.046661 +/-     0.002622 s,   33 calls,      1.539827 s total
PROFILER:               WavefunctionDrag    36.437141 +/-     0.901697 s,   16 calls,    582.994256 s total
PROFILER:                            Y*M     0.844112 +/-     1.112501 s, 7308 calls,   6168.770301 s total
PROFILER:                          Y1^Y2     0.849242 +/-     1.118116 s, 5397 calls,   4583.357937 s total

MEMUSAGE:                   ColumnBundle     1.340214 GB
MEMUSAGE:        complexScalarFieldTilde     0.074158 GB
MEMUSAGE:                    IndexArrays     0.023178 GB
MEMUSAGE:                         matrix     0.020735 GB
MEMUSAGE:                           misc     0.051230 GB
MEMUSAGE:                    ScalarField     0.395508 GB
MEMUSAGE:               ScalarFieldTilde     0.262436 GB
MEMUSAGE:                          Total     1.657328 GB
