
*************** JDFTx 1.7.0 (git hash 5f12716a) ***************

Start date and time: Sun Nov 20 21:24:19 2022
Executable /home/nisi6161/jdftx_alpine/build/jdftx with command-line: -i in
Running on hosts (process indices):  c3cpu-a5-u15-3.rc.int.colorado.edu (0-17)
Divided in process groups (process indices):  0 (0)  1 (1)  2 (2)  3 (3)  4 (4)  5 (5)  6 (6)  7 (7)  8 (8)  9 (9)  10 (10)  11 (11)  12 (12)  13 (13)  14 (14)  15 (15)  16 (16)  17 (17)
Resource initialization completed at t[s]:      0.12
Run totals: 18 processes, 64 threads, 0 GPUs


Input parsed successfully to the following command list (including defaults):

basis kpoint-dependent
converge-empty-states yes
coords-type Cartesian
core-overlap-check none
coulomb-interaction Periodic
davidson-band-ratio 1.1
density-of-states Etol 1.000000e-06 Esigma 1.000000e-03 \
		Complete \
	Total \
	OrthoOrbital C 1   s \
	OrthoOrbital C 1   p \
	OrthoOrbital C 1   px \
	OrthoOrbital C 1   py \
	OrthoOrbital C 1   pz \
	OrthoOrbital C 2   s \
	OrthoOrbital C 2   p \
	OrthoOrbital C 2   px \
	OrthoOrbital C 2   py \
	OrthoOrbital C 2   pz \
	OrthoOrbital C 3   s \
	OrthoOrbital C 3   p \
	OrthoOrbital C 3   px \
	OrthoOrbital C 3   py \
	OrthoOrbital C 3   pz \
	OrthoOrbital C 4   s \
	OrthoOrbital C 4   p \
	OrthoOrbital C 4   px \
	OrthoOrbital C 4   py \
	OrthoOrbital C 4   pz \
	OrthoOrbital C 5   s \
	OrthoOrbital C 5   p \
	OrthoOrbital C 5   px \
	OrthoOrbital C 5   py \
	OrthoOrbital C 5   pz \
	OrthoOrbital C 6   s \
	OrthoOrbital C 6   p \
	OrthoOrbital C 6   px \
	OrthoOrbital C 6   py \
	OrthoOrbital C 6   pz \
	OrthoOrbital C 7   s \
	OrthoOrbital C 7   p \
	OrthoOrbital C 7   px \
	OrthoOrbital C 7   py \
	OrthoOrbital C 7   pz \
	OrthoOrbital C 8   s \
	OrthoOrbital C 8   p \
	OrthoOrbital C 8   px \
	OrthoOrbital C 8   py \
	OrthoOrbital C 8   pz \
	OrthoOrbital C 9   s \
	OrthoOrbital C 9   p \
	OrthoOrbital C 9   px \
	OrthoOrbital C 9   py \
	OrthoOrbital C 9   pz \
	OrthoOrbital C 10   s \
	OrthoOrbital C 10   p \
	OrthoOrbital C 10   px \
	OrthoOrbital C 10   py \
	OrthoOrbital C 10   pz \
	OrthoOrbital C 11   s \
	OrthoOrbital C 11   p \
	OrthoOrbital C 11   px \
	OrthoOrbital C 11   py \
	OrthoOrbital C 11   pz \
	OrthoOrbital C 12   s \
	OrthoOrbital C 12   p \
	OrthoOrbital C 12   px \
	OrthoOrbital C 12   py \
	OrthoOrbital C 12   pz \
	OrthoOrbital C 13   s \
	OrthoOrbital C 13   p \
	OrthoOrbital C 13   px \
	OrthoOrbital C 13   py \
	OrthoOrbital C 13   pz \
	OrthoOrbital C 14   s \
	OrthoOrbital C 14   p \
	OrthoOrbital C 14   px \
	OrthoOrbital C 14   py \
	OrthoOrbital C 14   pz \
	OrthoOrbital C 15   s \
	OrthoOrbital C 15   p \
	OrthoOrbital C 15   px \
	OrthoOrbital C 15   py \
	OrthoOrbital C 15   pz \
	OrthoOrbital C 16   s \
	OrthoOrbital C 16   p \
	OrthoOrbital C 16   px \
	OrthoOrbital C 16   py \
	OrthoOrbital C 16   pz \
	OrthoOrbital C 17   s \
	OrthoOrbital C 17   p \
	OrthoOrbital C 17   px \
	OrthoOrbital C 17   py \
	OrthoOrbital C 17   pz \
	OrthoOrbital C 18   s \
	OrthoOrbital C 18   p \
	OrthoOrbital C 18   px \
	OrthoOrbital C 18   py \
	OrthoOrbital C 18   pz \
	OrthoOrbital C 19   s \
	OrthoOrbital C 19   p \
	OrthoOrbital C 19   px \
	OrthoOrbital C 19   py \
	OrthoOrbital C 19   pz \
	OrthoOrbital C 20   s \
	OrthoOrbital C 20   p \
	OrthoOrbital C 20   px \
	OrthoOrbital C 20   py \
	OrthoOrbital C 20   pz \
	OrthoOrbital C 21   s \
	OrthoOrbital C 21   p \
	OrthoOrbital C 21   px \
	OrthoOrbital C 21   py \
	OrthoOrbital C 21   pz \
	OrthoOrbital C 22   s \
	OrthoOrbital C 22   p \
	OrthoOrbital C 22   px \
	OrthoOrbital C 22   py \
	OrthoOrbital C 22   pz \
	OrthoOrbital C 23   s \
	OrthoOrbital C 23   p \
	OrthoOrbital C 23   px \
	OrthoOrbital C 23   py \
	OrthoOrbital C 23   pz \
	OrthoOrbital C 24   s \
	OrthoOrbital C 24   p \
	OrthoOrbital C 24   px \
	OrthoOrbital C 24   py \
	OrthoOrbital C 24   pz \
	OrthoOrbital C 25   s \
	OrthoOrbital C 25   p \
	OrthoOrbital C 25   px \
	OrthoOrbital C 25   py \
	OrthoOrbital C 25   pz \
	OrthoOrbital C 26   s \
	OrthoOrbital C 26   p \
	OrthoOrbital C 26   px \
	OrthoOrbital C 26   py \
	OrthoOrbital C 26   pz \
	OrthoOrbital C 27   s \
	OrthoOrbital C 27   p \
	OrthoOrbital C 27   px \
	OrthoOrbital C 27   py \
	OrthoOrbital C 27   pz \
	OrthoOrbital C 28   s \
	OrthoOrbital C 28   p \
	OrthoOrbital C 28   px \
	OrthoOrbital C 28   py \
	OrthoOrbital C 28   pz \
	OrthoOrbital C 29   s \
	OrthoOrbital C 29   p \
	OrthoOrbital C 29   px \
	OrthoOrbital C 29   py \
	OrthoOrbital C 29   pz \
	OrthoOrbital C 30   s \
	OrthoOrbital C 30   p \
	OrthoOrbital C 30   px \
	OrthoOrbital C 30   py \
	OrthoOrbital C 30   pz \
	OrthoOrbital C 31   s \
	OrthoOrbital C 31   p \
	OrthoOrbital C 31   px \
	OrthoOrbital C 31   py \
	OrthoOrbital C 31   pz \
	OrthoOrbital C 32   s \
	OrthoOrbital C 32   p \
	OrthoOrbital C 32   px \
	OrthoOrbital C 32   py \
	OrthoOrbital C 32   pz \
	OrthoOrbital C 33   s \
	OrthoOrbital C 33   p \
	OrthoOrbital C 33   px \
	OrthoOrbital C 33   py \
	OrthoOrbital C 33   pz \
	OrthoOrbital C 34   s \
	OrthoOrbital C 34   p \
	OrthoOrbital C 34   px \
	OrthoOrbital C 34   py \
	OrthoOrbital C 34   pz \
	OrthoOrbital C 35   s \
	OrthoOrbital C 35   p \
	OrthoOrbital C 35   px \
	OrthoOrbital C 35   py \
	OrthoOrbital C 35   pz \
	OrthoOrbital C 36   s \
	OrthoOrbital C 36   p \
	OrthoOrbital C 36   px \
	OrthoOrbital C 36   py \
	OrthoOrbital C 36   pz \
	OrthoOrbital C 37   s \
	OrthoOrbital C 37   p \
	OrthoOrbital C 37   px \
	OrthoOrbital C 37   py \
	OrthoOrbital C 37   pz \
	OrthoOrbital C 38   s \
	OrthoOrbital C 38   p \
	OrthoOrbital C 38   px \
	OrthoOrbital C 38   py \
	OrthoOrbital C 38   pz \
	OrthoOrbital C 39   s \
	OrthoOrbital C 39   p \
	OrthoOrbital C 39   px \
	OrthoOrbital C 39   py \
	OrthoOrbital C 39   pz \
	OrthoOrbital C 40   s \
	OrthoOrbital C 40   p \
	OrthoOrbital C 40   px \
	OrthoOrbital C 40   py \
	OrthoOrbital C 40   pz \
	OrthoOrbital C 41   s \
	OrthoOrbital C 41   p \
	OrthoOrbital C 41   px \
	OrthoOrbital C 41   py \
	OrthoOrbital C 41   pz \
	OrthoOrbital C 42   s \
	OrthoOrbital C 42   p \
	OrthoOrbital C 42   px \
	OrthoOrbital C 42   py \
	OrthoOrbital C 42   pz \
	OrthoOrbital C 43   s \
	OrthoOrbital C 43   p \
	OrthoOrbital C 43   px \
	OrthoOrbital C 43   py \
	OrthoOrbital C 43   pz \
	OrthoOrbital C 44   s \
	OrthoOrbital C 44   p \
	OrthoOrbital C 44   px \
	OrthoOrbital C 44   py \
	OrthoOrbital C 44   pz \
	OrthoOrbital C 45   s \
	OrthoOrbital C 45   p \
	OrthoOrbital C 45   px \
	OrthoOrbital C 45   py \
	OrthoOrbital C 45   pz \
	OrthoOrbital N 1   s \
	OrthoOrbital N 1   p \
	OrthoOrbital N 1   px \
	OrthoOrbital N 1   py \
	OrthoOrbital N 1   pz \
	OrthoOrbital N 2   s \
	OrthoOrbital N 2   p \
	OrthoOrbital N 2   px \
	OrthoOrbital N 2   py \
	OrthoOrbital N 2   pz \
	OrthoOrbital N 3   s \
	OrthoOrbital N 3   p \
	OrthoOrbital N 3   px \
	OrthoOrbital N 3   py \
	OrthoOrbital N 3   pz \
	OrthoOrbital N 4   s \
	OrthoOrbital N 4   p \
	OrthoOrbital N 4   px \
	OrthoOrbital N 4   py \
	OrthoOrbital N 4   pz \
	OrthoOrbital Ti 1   s \
	OrthoOrbital Ti 1   p \
	OrthoOrbital Ti 1   px \
	OrthoOrbital Ti 1   py \
	OrthoOrbital Ti 1   pz \
	OrthoOrbital Ti 1   d \
	OrthoOrbital Ti 1   dxy \
	OrthoOrbital Ti 1   dyz \
	OrthoOrbital Ti 1   dz2 \
	OrthoOrbital Ti 1   dxz \
	OrthoOrbital Ti 1   dx2-y2 \
	OrthoOrbital O 1   s \
	OrthoOrbital O 1   p \
	OrthoOrbital O 1   px \
	OrthoOrbital O 1   py \
	OrthoOrbital O 1   pz \
	OrthoOrbital O 2   s \
	OrthoOrbital O 2   p \
	OrthoOrbital O 2   px \
	OrthoOrbital O 2   py \
	OrthoOrbital O 2   pz \
	OrthoOrbital O 3   s \
	OrthoOrbital O 3   p \
	OrthoOrbital O 3   px \
	OrthoOrbital O 3   py \
	OrthoOrbital O 3   pz \
	OrthoOrbital H 1   s \
	OrthoOrbital H 2   s \
	OrthoOrbital H 3   s
dump End ElecDensity KEdensity BandEigs EigStats RhoAtom DOS Kpoints
dump Ionic State IonicPositions Lattice EigStats Ecomponents
dump 
dump 
dump 
dump 
dump 
dump 
dump 
dump 
dump-name jdft.$VAR
elec-cutoff 20
elec-eigen-algo Davidson
elec-ex-corr gga-PBE
elec-initial-magnetization 0.000000 no
elec-n-bands 140
elec-smearing Fermi 0.001
electronic-minimize  \
	dirUpdateScheme      FletcherReeves \
	linminMethod         DirUpdateRecommended \
	nIterations          100 \
	history              15 \
	knormThreshold       0 \
	energyDiffThreshold  1e-07 \
	nEnergyDiff          2 \
	alphaTstart          1 \
	alphaTmin            1e-10 \
	updateTestStepSize   yes \
	alphaTreduceFactor   0.1 \
	alphaTincreaseFactor 3 \
	nAlphaAdjustMax      3 \
	wolfeEnergy          0.0001 \
	wolfeGradient        0.9 \
	fdTest               no
exchange-regularization WignerSeitzTruncated
fluid LinearPCM 298.000000 1.013250
fluid-anion F- 0.5 MeanFieldLJ \
	epsBulk 1 \
	pMol 0 \
	epsInf 1 \
	Pvap 0 \
	sigmaBulk 0 \
	Rvdw 2.24877 \
	Res 0 \
	tauNuc 343133
fluid-cation Na+ 0.5 MeanFieldLJ \
	epsBulk 1 \
	pMol 0 \
	epsInf 1 \
	Pvap 0 \
	sigmaBulk 0 \
	Rvdw 2.19208 \
	Res 0 \
	tauNuc 343133
fluid-ex-corr lda-TF lda-PZ
fluid-gummel-loop 10 1.000000e-05
fluid-minimize  \
	dirUpdateScheme      PolakRibiere \
	linminMethod         DirUpdateRecommended \
	nIterations          400 \
	history              15 \
	knormThreshold       1e-11 \
	energyDiffThreshold  0 \
	nEnergyDiff          2 \
	alphaTstart          1 \
	alphaTmin            1e-10 \
	updateTestStepSize   yes \
	alphaTreduceFactor   0.1 \
	alphaTincreaseFactor 3 \
	nAlphaAdjustMax      6 \
	wolfeEnergy          0.0001 \
	wolfeGradient        0.9 \
	fdTest               no
fluid-solvent H2O 55.338 ScalarEOS \
	epsBulk 78.4 \
	pMol 0.92466 \
	epsInf 1.77 \
	Pvap 1.06736e-10 \
	sigmaBulk 4.62e-05 \
	Rvdw 2.61727 \
	Res 1.42 \
	tauNuc 343133 \
	poleEl 15 7 1
forces-output-coords Positions
initial-state jdft.$VAR
ion C   0.002461000000000   0.090659000000000   0.035211000000000 0
ion C  21.041053000000002   4.043435000000001   0.055195000000000 0
ion C  18.693049999999999   8.044991000000001  43.242557000000005 0
ion C  -7.046992000000000  12.045087000000002  43.237972000000006 0
ion C  -9.373006000000002  16.055339000000004   0.014058000000000 0
ion C   4.682712000000001   0.178006000000000   0.056017000000000 0
ion C   2.288986000000000   4.209373000000001   0.200839000000000 0
ion C  -0.131572000000000   8.023855000000001   0.205641000000000 0
ion C  -2.427594000000003  12.026528000000004   0.070075000000000 0
ion C  -4.719897000000002  16.054004000000003   0.027554000000000 0
ion C   9.378058000000001   0.064519000000000   0.004196000000000 0
ion C   7.082672000000001   4.155137000000001   0.027684000000000 0
ion C  -0.019167000000001  15.949339000000004   0.097932000000000 0
ion C   2.341992000000001  19.929452999999999   0.025651000000000 0
ion C  11.753337999999998   4.028723000000001  43.231787000000004 0
ion C   9.459151000000002   8.022460000000001   0.013712000000000 0
ion C   4.669438000000001  15.840057000000002   0.136776000000000 0
ion C   6.994318000000000  19.941245000000002   0.021412000000000 0
ion C  16.396037000000000   4.017783000000001  43.242644000000006 0
ion C  14.086559999999999   8.039380000000001  43.239443000000009 0
ion C  11.771976000000002  12.042837000000002   0.027468000000000 0
ion C   9.376505000000002  15.996794000000001   0.009170000000000 0
ion C  -0.013639000000000   2.774595000000000   0.087681000000000 0
ion C  -2.429311000000000   6.696097000000001   0.054892000000000 0
ion C  -4.742977000000000  10.694367000000002  43.248527000000010 0
ion C  -7.046983000000002  14.717903000000003   0.006834000000000 0
ion C  -9.375213000000002  18.744274000000004   0.039104000000000 0
ion C   4.679148000000000   2.895589000000001   0.114846000000000 0
ion C  -0.128425000000000  10.699586000000004   0.219396000000000 0
ion C  -2.400585000000001  14.697889000000004   0.071286000000000 0
ion C  -4.721467000000001  18.738989000000004   0.025391000000000 0
ion C   9.388293000000001   2.743428000000001  43.233993000000005 0
ion C   2.286725999999998  14.518199000000005   0.222813000000000 0
ion C  -0.009969000000000  18.634632000000003   0.031577000000000 0
ion C  14.073209000000004   2.676200000000000  43.243639000000009 0
ion C  11.777767000000001   6.702715000000001  43.252333000000007 0
ion C   9.456739999999996  10.717958000000003   0.053205000000000 0
ion C   7.072538000000000  14.585058000000004   0.084826000000000 0
ion C   4.667830000000002  18.558540000000001   0.054892000000000 0
ion C  18.724167000000001   2.684459000000001   0.012631000000000 0
ion C  16.391851000000003   6.691195000000001  43.226033000000008 0
ion C  14.084496000000001  10.711297000000002  43.247272000000009 0
ion C  11.745595000000000  14.717269000000003   0.014967000000000 0
ion C   9.361956000000001  18.675664000000005   0.012025000000000 0
ion C   4.440935000000001   9.173762000000002   5.548314000000001 1
ion N   2.171711999999999  11.911252000000003   0.445280000000000 0
ion N   7.176168999999998  11.997751000000003   0.180898000000000 0
ion N   2.159894000000000   6.808552000000001   0.405225000000000 0
ion N   7.186338000000001   6.738493000000001   0.048880000000000 0
ion Ti   4.884646000000001   9.336981000000000   1.565143000000000 0
ion O   3.917090000000000  10.939130000000000   7.519591000000002 1
ion O   4.926117000000001   7.016948000000001   6.249845000000001 1
ion O   1.905647999999999  15.240746000000003   6.022966000000002 1
ion H   3.296634999999999  12.545077000000001   6.785099000000001 1
ion H   2.613828999999999  16.665143000000000   6.984986000000001 1
ion H   0.207808000000000  15.010786000000001   6.738944000000001 1
ion-species /projects/musgravc/apps/jdftx-1.6.0/build/pseudopotentials/GBRV_v1.5/$ID_pbe_v1.uspp
ion-species /projects/musgravc/apps/jdftx-1.6.0/build/pseudopotentials/GBRV_v1.5/$ID_pbe_v1.2.uspp
ion-species /projects/musgravc/apps/jdftx-1.6.0/build/pseudopotentials/GBRV_v1.5/$ID_pbe_v1.4.uspp
ion-species /projects/musgravc/apps/jdftx-1.6.0/build/pseudopotentials/GBRV_v1.5/$ID_pbe_v1.5.uspp
ion-width Ecut
ionic-minimize  \
	dirUpdateScheme      L-BFGS \
	linminMethod         DirUpdateRecommended \
	nIterations          0 \
	history              15 \
	knormThreshold       0.0001 \
	energyDiffThreshold  1e-06 \
	nEnergyDiff          2 \
	alphaTstart          1 \
	alphaTmin            1e-10 \
	updateTestStepSize   yes \
	alphaTreduceFactor   0.1 \
	alphaTincreaseFactor 3 \
	nAlphaAdjustMax      3 \
	wolfeEnergy          0.0001 \
	wolfeGradient        0.9 \
	fdTest               no
kpoint   0.000000000000   0.000000000000   0.000000000000  1.00000000000000
kpoint-folding 3 3 1 
latt-move-scale 0 0 0
latt-scale 1 1 1 
lattice  \
	  23.436261999999999  -11.733459000000000    0.000000000000000  \
	   0.017994000000000   19.941849000000001    0.000000000000000  \
	   0.000000000000000    0.000000000000000   43.256312999999999 
lattice-minimize  \
	dirUpdateScheme      L-BFGS \
	linminMethod         DirUpdateRecommended \
	nIterations          0 \
	history              15 \
	knormThreshold       0 \
	energyDiffThreshold  1e-06 \
	nEnergyDiff          2 \
	alphaTstart          1 \
	alphaTmin            1e-10 \
	updateTestStepSize   yes \
	alphaTreduceFactor   0.1 \
	alphaTincreaseFactor 3 \
	nAlphaAdjustMax      3 \
	wolfeEnergy          0.0001 \
	wolfeGradient        0.9 \
	fdTest               no
lcao-params 30 1e-06 0.001
pcm-variant CANDLE
spintype z-spin
subspace-rotation-factor 1 yes
symmetries none
symmetry-threshold 0.0001
target-mu -0.1455 no

van-der-waals D3
vibrations \
	dr 0.01\
	centralDiff no\
	useConstraints yes\
	translationSym yes\
	rotationSym no\
	omegaMin 0.0002\
	T 298\
	omegaResolution 0.0001


Applied RMS atom displacement 0 bohrs to make symmetries exact.
Applied RMS atom displacement 0 bohrs to make symmetries exact.

---------- Initializing the Grid ----------
R = 
[      23.4363     -11.7335            0  ]
[     0.017994      19.9418            0  ]
[            0            0      43.2563  ]
unit cell volume = 20225.5
G =
[   0.267976   0.157673         -0  ]
[ -0.000241801   0.314933          0  ]
[          0         -0   0.145255  ]
Minimum fftbox size, Smin = [  96  96  176  ]
Chosen fftbox size, S = [  96  96  180  ]

---------- Exchange Correlation functional ----------
Initalized PBE GGA exchange.
Initalized PBE GGA correlation.

---------- Setting up pseudopotentials ----------
Width of ionic core gaussian charges (only for fluid interactions / plotting) set to 0.397384

Reading pseudopotential file '/projects/musgravc/apps/jdftx-1.6.0/build/pseudopotentials/GBRV_v1.5/c_pbe_v1.2.uspp':
  Title: C.  Created by USPP 7.3.6 on 3-2-2014
  Reference state energy: -5.406344.  4 valence electrons in orbitals:
    |200>  occupation: 2  eigenvalue: -0.504890
    |210>  occupation: 2  eigenvalue: -0.194356
  lMax: 1  lLocal: 2  QijEcut: 5
  4 projectors sampled on a log grid with 503 points:
    l: 0  eig: -0.504890  rCut: 1.3
    l: 0  eig: 0.000000  rCut: 1.3
    l: 1  eig: -0.194357  rCut: 1.3
    l: 1  eig: 0.000000  rCut: 1.3
  Partial core density with radius 1.1
  Transforming core density to a uniform radial grid of dG=0.02 with 1464 points.
  Transforming local potential to a uniform radial grid of dG=0.02 with 1464 points.
  Transforming nonlocal projectors to a uniform radial grid of dG=0.02 with 432 points.
  Transforming density augmentations to a uniform radial grid of dG=0.02 with 1464 points.
  Transforming atomic orbitals to a uniform radial grid of dG=0.02 with 432 points.
  Core radius for overlap checks: 1.30 bohrs.

Reading pseudopotential file '/projects/musgravc/apps/jdftx-1.6.0/build/pseudopotentials/GBRV_v1.5/n_pbe_v1.2.uspp':
  Title: N.  Created by USPP 7.3.6 on 3-2-2014
  Reference state energy: -9.763716.  5 valence electrons in orbitals:
    |200>  occupation: 2  eigenvalue: -0.681964
    |210>  occupation: 3  eigenvalue: -0.260726
  lMax: 1  lLocal: 2  QijEcut: 6
  4 projectors sampled on a log grid with 491 points:
    l: 0  eig: -0.681964  rCut: 1.15
    l: 0  eig: 0.000000  rCut: 1.15
    l: 1  eig: -0.260729  rCut: 1.2
    l: 1  eig: 0.500000  rCut: 1.2
  Partial core density with radius 0.8
  Transforming core density to a uniform radial grid of dG=0.02 with 1464 points.
  Transforming local potential to a uniform radial grid of dG=0.02 with 1464 points.
  Transforming nonlocal projectors to a uniform radial grid of dG=0.02 with 432 points.
  Transforming density augmentations to a uniform radial grid of dG=0.02 with 1464 points.
  Transforming atomic orbitals to a uniform radial grid of dG=0.02 with 432 points.
  Core radius for overlap checks: 1.20 bohrs.

Reading pseudopotential file '/projects/musgravc/apps/jdftx-1.6.0/build/pseudopotentials/GBRV_v1.5/ti_pbe_v1.4.uspp':
  Title: Ti.  Created by USPP 7.3.6 on 31-3-15
  Reference state energy: -59.020943.  12 valence electrons in orbitals:
    |300>  occupation: 2  eigenvalue: -2.777623
    |310>  occupation: 6  eigenvalue: -1.894596
    |400>  occupation: 2  eigenvalue: -0.438610
    |320>  occupation: 1  eigenvalue: -0.583119
  lMax: 2  lLocal: 3  QijEcut: 6
  6 projectors sampled on a log grid with 597 points:
    l: 0  eig: -2.777624  rCut: 1.8
    l: 0  eig: -0.438611  rCut: 1.8
    l: 1  eig: -1.894596  rCut: 1.8
    l: 1  eig: 0.500000  rCut: 1.8
    l: 2  eig: -0.583118  rCut: 1.8
    l: 2  eig: 0.150000  rCut: 1.8
  Partial core density with radius 0.8
  Transforming core density to a uniform radial grid of dG=0.02 with 1464 points.
  Transforming local potential to a uniform radial grid of dG=0.02 with 1464 points.
  Transforming nonlocal projectors to a uniform radial grid of dG=0.02 with 432 points.
  Transforming density augmentations to a uniform radial grid of dG=0.02 with 1464 points.
  Transforming atomic orbitals to a uniform radial grid of dG=0.02 with 432 points.
  Core radius for overlap checks: 1.80 bohrs.

Reading pseudopotential file '/projects/musgravc/apps/jdftx-1.6.0/build/pseudopotentials/GBRV_v1.5/o_pbe_v1.2.uspp':
  Title: O.  Created by USPP 7.3.6 on 3-2-2014
  Reference state energy: -15.894388.  6 valence electrons in orbitals:
    |200>  occupation: 2  eigenvalue: -0.878823
    |210>  occupation: 4  eigenvalue: -0.332131
  lMax: 2  lLocal: 2  QijEcut: 6
  5 projectors sampled on a log grid with 511 points:
    l: 0  eig: -0.878823  rCut: 1.25
    l: 0  eig: 0.000000  rCut: 1.25
    l: 1  eig: -0.332132  rCut: 1.25
    l: 1  eig: 0.000000  rCut: 1.25
    l: 2  eig: 1.000000  rCut: 1.25
  Partial core density with radius 0.7
  Transforming core density to a uniform radial grid of dG=0.02 with 1464 points.
  Transforming local potential to a uniform radial grid of dG=0.02 with 1464 points.
  Transforming nonlocal projectors to a uniform radial grid of dG=0.02 with 432 points.
  Transforming density augmentations to a uniform radial grid of dG=0.02 with 1464 points.
  Transforming atomic orbitals to a uniform radial grid of dG=0.02 with 432 points.
  Core radius for overlap checks: 1.25 bohrs.

Reading pseudopotential file '/projects/musgravc/apps/jdftx-1.6.0/build/pseudopotentials/GBRV_v1.5/h_pbe_v1.4.uspp':
  Title: H.  Created by USPP 7.3.6 on 2-4-15
  Reference state energy: -0.458849.  1 valence electrons in orbitals:
    |100>  occupation: 1  eigenvalue: -0.238595
  lMax: 0  lLocal: 1  QijEcut: 6
  2 projectors sampled on a log grid with 395 points:
    l: 0  eig: -0.238595  rCut: 1.2
    l: 0  eig: 1.000000  rCut: 1.2
  Transforming local potential to a uniform radial grid of dG=0.02 with 1464 points.
  Transforming nonlocal projectors to a uniform radial grid of dG=0.02 with 432 points.
  Transforming density augmentations to a uniform radial grid of dG=0.02 with 1464 points.
  Transforming atomic orbitals to a uniform radial grid of dG=0.02 with 432 points.
  Core radius for overlap checks: 1.20 bohrs.

Initialized 5 species with 56 total atoms.

Folded 1 k-points by 3x3x1 to 9 k-points.

---------- Setting up k-points, bands, fillings ----------
No reducable k-points. 
Computing the number of bands and number of electrons
Calculating initial fillings.
nElectrons: 233.000000   nBands: 140   nStates: 18

----- Setting up reduced wavefunction bases (one per k-point) -----
average nbasis = 86412.556 , ideal nbasis = 86404.907

----- Initializing Supercell corresponding to k-point mesh -----
Lattice vector linear combinations in supercell:
[   3   0   0  ]
[   0   3   0  ]
[   0   0   1  ]
Supercell lattice vectors:
[  70.3088  -35.2004  0  ]
[  0.053982  59.8255  0  ]
[  0  0  43.2563  ]

Initializing DFT-D3 calculator:
	Parameters set for gga-PBE functional
	s6:  1.000  s_r6:  1.217
	s8:  0.722  s_r8:  1.000
	Per-atom parameters loaded for:
	 C:  sqrtQ[a0]:  3.105  Rcov[a0]:  1.417  CN: [ 0.00 0.99 2.00 3.00 3.98 ]
	 N:  sqrtQ[a0]:  2.712  Rcov[a0]:  1.342  CN: [ 0.00 0.99 2.01 2.99 ]
	Ti:  sqrtQ[a0]:  6.288  Rcov[a0]:  2.305  CN: [ 0.00 1.83 3.87 ]
	 O:  sqrtQ[a0]:  2.594  Rcov[a0]:  1.191  CN: [ 0.00 0.99 1.99 ]
	 H:  sqrtQ[a0]:  2.007  Rcov[a0]:  0.605  CN: [ 0.91 0.00 ]

Initializing DFT-D2 calculator for fluid / solvation:
	 C:  C6:   30.35 Eh-a0^6  R0: 2.744 a0
	 N:  C6:   21.33 Eh-a0^6  R0: 2.640 a0
	Ti:  C6:  187.33 Eh-a0^6  R0: 2.952 a0
	 O:  C6:   12.14 Eh-a0^6  R0: 2.536 a0
	 H:  C6:    2.43 Eh-a0^6  R0: 1.892 a0

---------- Setting up ewald sum ----------
Optimum gaussian width for ewald sums = 5.557061 bohr.
Real space sum over 567 unit cells with max indices [  4  4  3  ]
Reciprocal space sum over 7803 terms with max indices [  8  8  13  ]

Computing DFT-D3 correction:
# coordination-number C 3.301 3.323 3.336 3.332 3.313 3.291 3.322 3.534 3.329 3.313 3.303 3.341 3.301 3.301 3.323 3.747 3.270 3.303 3.320 3.334 3.326 3.306 3.302 3.331 3.336 3.320 3.301 3.270 3.530 3.323 3.303 3.306 3.317 3.301 3.313 3.327 3.743 3.334 3.292 3.314 3.333 3.333 3.322 3.303 2.989
# coordination-number N 3.171 3.185 3.176 3.186
# coordination-number Ti 6.852
# coordination-number O 2.019 1.171 2.014
# coordination-number H 1.025 0.992 0.993
# diagonal-C6 C 24.27 24.05 23.90 23.95 24.16 24.36 24.06 21.15 23.98 24.15 24.25 23.85 24.27 24.27 24.05 19.00 24.55 24.26 24.08 23.93 24.02 24.23 24.26 23.97 23.91 24.08 24.27 24.55 21.20 24.06 24.26 24.22 24.11 24.27 24.15 24.00 19.02 23.93 24.36 24.14 23.94 23.94 24.06 24.25 25.69
# diagonal-C6 N 15.60 15.60 15.60 15.60
# diagonal-C6 Ti 321.59
# diagonal-C6 O 10.40 12.64 10.41
# diagonal-C6 H 3.08 3.09 3.09
EvdW_6 =   -0.045086
EvdW_8 =   -0.033981

---------- Allocating electronic variables ----------
Initializing wave functions:  linear combination of atomic orbitals
C pseudo-atom occupations:   s ( 2 )  p ( 2 )
N pseudo-atom occupations:   s ( 2 )  p ( 3 )
Ti pseudo-atom occupations:   s ( 2 0 )  p ( 6 )  d ( 4 )
O pseudo-atom occupations:   s ( 2 )  p ( 4 )
H pseudo-atom occupations:   s ( 1 )
	FillingsUpdate:  mu: -0.145500000  nElectrons: 233.000000  magneticMoment: [ Abs: 0.00450  Tot: +0.00003 ]
LCAOMinimize: Iter:   0  G: -364.9121137496974825  |grad|_K:  4.699e-03  alpha:  1.000e+00
	FillingsUpdate:  mu: -0.145500000  nElectrons: 233.000000  magneticMoment: [ Abs: 0.00442  Tot: -0.00003 ]
LCAOMinimize: Iter:   1  G: -367.0884396965274163  |grad|_K:  1.441e-03  alpha:  1.312e-01  linmin: -1.294e-01  cgtest:  1.839e+00  t[s]:    346.14
LCAOMinimize: Encountered beta<0, resetting CG.
LCAOMinimize: 	Predicted alpha/alphaT>3.000000, increasing alphaT to 3.936803e-01.
LCAOMinimize: 	Wrong curvature in test step, increasing alphaT to 1.181041e+00.
	FillingsUpdate:  mu: -0.145500000  nElectrons: 233.000000  magneticMoment: [ Abs: 0.00447  Tot: -0.00003 ]
LCAOMinimize: Iter:   2  G: -367.8833381447068973  |grad|_K:  1.070e-03  alpha: -2.063e+00  linmin: -2.427e-01  cgtest:  2.781e-01  t[s]:    529.78
	FillingsUpdate:  mu: -0.145500000  nElectrons: 233.000000  magneticMoment: [ Abs: 0.00448  Tot: -0.00003 ]
LCAOMinimize: Iter:   3  G: -367.9537691661898293  |grad|_K:  9.337e-04  alpha:  3.415e-02  linmin: -2.646e-01  cgtest:  8.711e-01  t[s]:    678.74
LCAOMinimize: 	Predicted alpha/alphaT>3.000000, increasing alphaT to 1.024552e-01.
LCAOMinimize: 	Predicted alpha/alphaT>3.000000, increasing alphaT to 3.073656e-01.
	FillingsUpdate:  mu: -0.145500000  nElectrons: 233.000000  magneticMoment: [ Abs: 0.00449  Tot: -0.00004 ]
LCAOMinimize: Iter:   4  G: -367.9885186880164269  |grad|_K:  8.203e-04  alpha:  4.597e-02  linmin: -2.840e-01  cgtest:  9.299e-01  t[s]:    903.15
LCAOMinimize: Encountered beta<0, resetting CG.
LCAOMinimize: 	Predicted alpha/alphaT>3.000000, increasing alphaT to 1.378955e-01.
LCAOMinimize: 	Step increased G by 9.757323e-01, reducing alpha to 3.508202e-02.
	FillingsUpdate:  mu: -0.145500000  nElectrons: 233.000000  magneticMoment: [ Abs: 0.00449  Tot: -0.00004 ]
LCAOMinimize: Iter:   5  G: -368.0087722642556400  |grad|_K:  7.296e-04  alpha:  3.508e-02  linmin: -2.896e-01  cgtest:  9.533e-01  t[s]:   1203.51
LCAOMinimize: Encountered beta<0, resetting CG.
LCAOMinimize: 	Predicted alpha/alphaT>3.000000, increasing alphaT to 1.052461e-01.
LCAOMinimize: 	Predicted alpha/alphaT>3.000000, increasing alphaT to 3.157382e-01.
	FillingsUpdate:  mu: -0.145500000  nElectrons: 233.000000  magneticMoment: [ Abs: 0.00450  Tot: -0.00005 ]
LCAOMinimize: Iter:   6  G: -368.0309478371932528  |grad|_K:  5.947e-04  alpha:  4.979e-02  linmin: -2.933e-01  cgtest:  9.396e-01  t[s]:   1427.28
LCAOMinimize: Encountered beta<0, resetting CG.
LCAOMinimize: 	Predicted alpha/alphaT>3.000000, increasing alphaT to 1.493555e-01.
	FillingsUpdate:  mu: -0.145500000  nElectrons: 233.000000  magneticMoment: [ Abs: 0.00464  Tot: -0.00033 ]
LCAOMinimize: Iter:   7  G: -368.0439002871571006  |grad|_K:  9.370e-04  alpha:  2.257e-01  linmin:  1.627e-01  cgtest: -3.935e-01  t[s]:   1613.96
LCAOMinimize: 	Bad step direction: g.d > 0.
LCAOMinimize: 	Undoing step.
LCAOMinimize: 	Step failed: resetting search direction.
	FillingsUpdate:  mu: -0.145500000  nElectrons: 233.000000  magneticMoment: [ Abs: 0.00464  Tot: -0.00033 ]
LCAOMinimize: Iter:   8  G: -368.0439002871571006  |grad|_K:  9.370e-04  alpha:  0.000e+00
	FillingsUpdate:  mu: -0.145500000  nElectrons: 233.000000  magneticMoment: [ Abs: 0.00455  Tot: -0.00008 ]
LCAOMinimize: Iter:   9  G: -368.0649216737224947  |grad|_K:  1.985e-04  alpha:  1.145e-01  linmin:  1.119e-01  cgtest: -1.468e+00  t[s]:   1873.45
LCAOMinimize: 	Wrong curvature in test step, increasing alphaT to 3.435708e-01.
	FillingsUpdate:  mu: -0.145500000  nElectrons: 233.000000  magneticMoment: [ Abs: 0.00456  Tot: -0.00008 ]
LCAOMinimize: Iter:  10  G: -368.0654607775284717  |grad|_K:  2.152e-04  alpha: -1.254e-01  linmin:  1.585e-03  cgtest:  9.890e-01  t[s]:   2019.13
	FillingsUpdate:  mu: -0.145500000  nElectrons: 233.000000  magneticMoment: [ Abs: 0.00457  Tot: -0.00009 ]
LCAOMinimize: Iter:  11  G: -368.0660712537602990  |grad|_K:  1.936e-04  alpha:  1.544e-02  linmin: -1.839e-01  cgtest:  9.870e-01  t[s]:   2167.40
LCAOMinimize: Encountered beta<0, resetting CG.
LCAOMinimize: 	Predicted alpha/alphaT>3.000000, increasing alphaT to 4.631255e-02.
LCAOMinimize: 	Predicted alpha/alphaT>3.000000, increasing alphaT to 1.389376e-01.
	FillingsUpdate:  mu: -0.145500000  nElectrons: 233.000000  magneticMoment: [ Abs: 0.00460  Tot: -0.00015 ]
LCAOMinimize: Iter:  12  G: -368.0683773710113087  |grad|_K:  6.182e-05  alpha:  1.387e-01  linmin:  1.126e-01  cgtest: -4.708e-01  t[s]:   2391.61
LCAOMinimize: 	Predicted alpha/alphaT>3.000000, increasing alphaT to 4.159523e-01.
	FillingsUpdate:  mu: -0.145500000  nElectrons: 233.000000  magneticMoment: [ Abs: 0.00464  Tot: -0.00018 ]
LCAOMinimize: Iter:  13  G: -368.0686824527210774  |grad|_K:  9.070e-05  alpha:  3.444e-01  linmin:  5.975e-03  cgtest:  7.772e-01  t[s]:   2577.59
	FillingsUpdate:  mu: -0.145500000  nElectrons: 233.000000  magneticMoment: [ Abs: 0.00465  Tot: -0.00016 ]
LCAOMinimize: Iter:  14  G: -368.0691052454953933  |grad|_K:  2.321e-05  alpha:  1.317e-01  linmin:  5.126e-02  cgtest: -5.942e-01  t[s]:   2726.28
LCAOMinimize: 	Predicted alpha/alphaT>3.000000, increasing alphaT to 3.949656e-01.
	FillingsUpdate:  mu: -0.145500000  nElectrons: 233.000000  magneticMoment: [ Abs: 0.00469  Tot: -0.00018 ]
LCAOMinimize: Iter:  15  G: -368.0691662981809031  |grad|_K:  1.490e-05  alpha:  3.920e-01  linmin:  1.462e-02  cgtest:  5.461e-01  t[s]:   2912.59
	FillingsUpdate:  mu: -0.145500000  nElectrons: 233.000000  magneticMoment: [ Abs: 0.00469  Tot: -0.00019 ]
LCAOMinimize: Iter:  16  G: -368.0691792951528214  |grad|_K:  4.291e-06  alpha:  1.070e-01  linmin: -1.503e-02  cgtest:  1.161e-01  t[s]:   3060.70
LCAOMinimize: 	Wrong curvature in test step, increasing alphaT to 3.209588e-01.
	FillingsUpdate:  mu: -0.145500000  nElectrons: 233.000000  magneticMoment: [ Abs: 0.00469  Tot: -0.00019 ]
LCAOMinimize: Iter:  17  G: -368.0691818199684349  |grad|_K:  3.018e-06  alpha: -1.235e-01  linmin: -2.851e-01  cgtest:  9.523e-01  t[s]:   3206.47
LCAOMinimize: Encountered beta<0, resetting CG.
LCAOMinimize: 	Step increased G by 2.418941e-06, reducing alpha to 1.835078e-01.
	FillingsUpdate:  mu: -0.145500000  nElectrons: 233.000000  magneticMoment: [ Abs: 0.00470  Tot: -0.00019 ]
LCAOMinimize: Iter:  18  G: -368.0691842015015709  |grad|_K:  2.152e-06  alpha:  1.835e-01  linmin: -2.240e-01  cgtest:  8.515e-01  t[s]:   3464.56
LCAOMinimize: Encountered beta<0, resetting CG.
LCAOMinimize: 	Wrong curvature in test step, increasing alphaT to 5.505233e-01.
	FillingsUpdate:  mu: -0.145500000  nElectrons: 233.000000  magneticMoment: [ Abs: 0.00470  Tot: -0.00020 ]
LCAOMinimize: Iter:  19  G: -368.0691856502055543  |grad|_K:  1.643e-06  alpha: -9.957e-02  linmin: -2.247e-01  cgtest:  8.442e-01  t[s]:   3609.70
LCAOMinimize: Encountered beta<0, resetting CG.
LCAOMinimize: 	Wrong curvature in test step, increasing alphaT to 3.000000e+00.
	FillingsUpdate:  mu: -0.145500000  nElectrons: 233.000000  magneticMoment: [ Abs: 0.00471  Tot: -0.00022 ]
LCAOMinimize: Iter:  20  G: -368.0691889769964291  |grad|_K:  4.482e-06  alpha: -1.286e+00  linmin:  4.403e-02  cgtest: -3.910e-01  t[s]:   3754.73
LCAOMinimize: 	Bad step direction: g.d > 0.
LCAOMinimize: 	Undoing step.
LCAOMinimize: 	Step failed: resetting search direction.
	FillingsUpdate:  mu: -0.145500000  nElectrons: 233.000000  magneticMoment: [ Abs: 0.00471  Tot: -0.00022 ]
LCAOMinimize: Iter:  21  G: -368.0691889769964291  |grad|_K:  4.482e-06  alpha:  0.000e+00
	FillingsUpdate:  mu: -0.145500000  nElectrons: 233.000000  magneticMoment: [ Abs: 0.00472  Tot: -0.00023 ]
LCAOMinimize: Iter:  22  G: -368.0691898657056527  |grad|_K:  5.658e-07  alpha:  9.219e-02  linmin: -1.700e-01  cgtest:  5.759e-01  t[s]:   4013.76
LCAOMinimize: Encountered beta<0, resetting CG.
LCAOMinimize: 	Step increased G by 6.426376e-09, reducing alpha to 2.092570e-03.
LCAOMinimize: 	Step increased G by 6.505161e-10, reducing alpha to 2.092570e-04.
LCAOMinimize: 	Step increased G by 5.462653e-11, reducing alpha to 2.092570e-05.
LCAOMinimize: 	Step failed to reduce G after 3 attempts. Quitting step.
LCAOMinimize: 	Undoing step.
LCAOMinimize: 	Step failed along negative gradient direction.
LCAOMinimize: Probably at roundoff error limit. (Stopping)
----- createFluidSolver() ----- (Fluid-side solver setup)
   Initializing fluid molecule 'H2O'
     Initializing site 'O'
       Electron density: proportional to exp(-r/0.36935)*erfc((r-0.51523)/0.36823) with norm 6.826
       Charge density: gaussian nuclear width 0.478731 with net site charge 0.826
       Polarizability: cuspless exponential with width 0.32 and norm 3.73
       Hard sphere radius: 2.57003 bohrs
       Positions in reference frame:
         [ +0.000000 +0.000000 +0.000000 ]
     Initializing site 'H'
       Electron density: proportional to exp(-r/0.34641)*erfc((r-0)/0.390882) with norm 0.587
       Charge density: gaussian nuclear width 0.377945 with net site charge -0.413
       Polarizability: cuspless exponential with width 0.39 and norm 3.3
       Positions in reference frame:
         [ +0.000000 -1.441945 +1.122523 ]
         [ +0.000000 +1.441945 +1.122523 ]
     Net charge: 0   dipole magnitude: 0.927204
     Initializing spherical shell mfKernel with radius 2.61727 Bohr
     deltaS corrections:
       site 'O': -7.54299
       site 'H': -6.83917
   Initializing fluid molecule 'Na+'
     Initializing site 'Na'
       Electron density: proportional to exp(-r/0.19682)*erfc((r-0.71491)/0.41314) with norm 8.1383
       Charge density: gaussian nuclear width 0.365347 with net site charge -1
       Hard sphere radius: 1.86327 bohrs
       Positions in reference frame:
         [ +0.000000 +0.000000 +0.000000 ]
     Net charge: -1   dipole magnitude: 0
     Initializing gaussian mfKernel with width: 1.55004 Bohr
     deltaS corrections:
       site 'Na': -22.3555
   Initializing fluid molecule 'F-'
     Initializing site 'F'
       Electron density: proportional to exp(-r/0.38886)*erfc((r-0)/0.438782) with norm 8
       Charge density: gaussian nuclear width 0.374796 with net site charge 1
       Hard sphere radius: 2.39995 bohrs
       Positions in reference frame:
         [ +0.000000 +0.000000 +0.000000 ]
     Net charge: 1   dipole magnitude: 0
     Initializing gaussian mfKernel with width: 1.59012 Bohr
     deltaS corrections:
       site 'F': -9.04335

Correction to mu due to finite nuclear width = -0.0114303
   Cavity determined by nc: 0.00142 and sigma: 0.707107
   Nonlocal vdW cavity from gaussian model electron density with norm = 8 and sigma = 0.993594 bohr
   Charge asymmetry in cavity with sensitivity pCavity = 36.5 e-bohr/Eh
   Electrostatic cavity expanded by eta = 1.46 bohrs
   Weighted density cavitation model constrained by Nbulk: 0.0049383 bohr^-3, Pvap: 3.14029 kPa, Rvdw: 2.61727 bohr and sigmaBulk: 4.62e-05 Eh/bohr^2 at T: 298 K.
   Weighted density dispersion model using vdW pair potentials with single solvent site with sqrtC6eff: 0.77 SI.
WARNING: Vibrations: switching off translationSym and rotationSym since useConstraints is on.

---- Citations for features of the code used in this run ----

   Software package:
      R. Sundararaman, K. Letchworth-Weaver, K.A. Schwarz, D. Gunceler, Y. Ozhabes and T.A. Arias, 'JDFTx: software for joint density-functional theory', SoftwareX 6, 278 (2017)

   gga-PBE exchange-correlation functional:
      J.P. Perdew, K. Burke and M. Ernzerhof, Phys. Rev. Lett. 77, 3865 (1996)

   Pseudopotentials:
      KF Garrity, JW Bennett, KM Rabe and D Vanderbilt, Comput. Mater. Sci. 81, 446 (2014)

   DFT-D3 dispersion correction:
      S. Grimme, J. Antony, S. Ehrlich and H. Krieg, J. Chem. Phys. 132, 154104 (2010)

   DFT-D2 dispersion correction:
      S. Grimme, J. Comput. Chem. 27, 1787 (2006)

   Charge-asymmetric nonlocally-determined local-electric (CANDLE) solvation model:
      R. Sundararaman and W.A. Goddard III, J. Chem. Phys. 142, 064107 (2015)

   Total energy minimization with Auxiliary Hamiltonian:
      C. Freysoldt, S. Boeck, and J. Neugebauer, Phys. Rev. B 79, 241103(R) (2009)

   Grand-canonical (fixed-potential) DFT:
      R. Sundararaman, W. A. Goddard III and T. A. Arias, J. Chem. Phys. 146, 114104 (2017)

   Linear-tetrahedron sampling for density of states:
      G. Lehmann and M. Taut, Phys. status solidi (b) 54, 469 (1972)

This list may not be complete. Please suggest additional citations or
report any other bugs at https://github.com/shankar1729/jdftx/issues

Initialization completed successfully at t[s]:   4517.08

------ Vibrations::calculate() -------
WARNING: Vibrations module is experimental. Please report bugs!
Compare results with and without symmetries and report discrepancies.
Degrees of freedom: 21 total, 21 symmetry-independent.

Computing DFT-D3 correction:
# coordination-number C 3.301 3.323 3.336 3.332 3.313 3.291 3.322 3.534 3.329 3.313 3.303 3.341 3.301 3.301 3.323 3.747 3.270 3.303 3.320 3.334 3.326 3.306 3.302 3.331 3.336 3.320 3.301 3.270 3.530 3.323 3.303 3.306 3.317 3.301 3.313 3.327 3.743 3.334 3.292 3.314 3.333 3.333 3.322 3.303 2.989
# coordination-number N 3.171 3.185 3.176 3.186
# coordination-number Ti 6.852
# coordination-number O 2.019 1.171 2.014
# coordination-number H 1.025 0.992 0.993
# diagonal-C6 C 24.27 24.05 23.90 23.95 24.16 24.36 24.06 21.15 23.98 24.15 24.25 23.85 24.27 24.27 24.05 19.00 24.55 24.26 24.08 23.93 24.02 24.23 24.26 23.97 23.91 24.08 24.27 24.55 21.20 24.06 24.26 24.22 24.11 24.27 24.15 24.00 19.02 23.93 24.36 24.14 23.94 23.94 24.06 24.25 25.69
# diagonal-C6 N 15.60 15.60 15.60 15.60
# diagonal-C6 Ti 321.59
# diagonal-C6 O 10.40 12.64 10.41
# diagonal-C6 H 3.08 3.09 3.09
EvdW_6 =   -0.045086
EvdW_8 =   -0.033981
Fluid solver invoked on fresh (random / LCAO) wavefunctions
Running a vacuum solve first:

-------- Initial electronic minimization -----------
	FillingsUpdate:  mu: -0.189131653  nElectrons: 233.000000  magneticMoment: [ Abs: 0.00472  Tot: -0.00023 ]
ElecMinimize: Iter:   0  G: -368.068877191224431  |grad|_K:  1.440e-04  alpha:  1.000e+00
	FillingsUpdate:  mu: -0.128255925  nElectrons: 233.000000  magneticMoment: [ Abs: 0.00267  Tot: -0.00024 ]
	SubspaceRotationAdjust: set factor to 1
ElecMinimize: Iter:   1  G: -371.107884671985005  |grad|_K:  4.847e-05  alpha:  6.808e-01  linmin:  2.617e-03  t[s]:   4760.48
	FillingsUpdate:  mu: -0.062141782  nElectrons: 233.000000  magneticMoment: [ Abs: 0.00296  Tot: -0.00091 ]
	SubspaceRotationAdjust: set factor to 0.716
ElecMinimize: Iter:   2  G: -371.189310817770718  |grad|_K:  4.199e-05  alpha:  1.042e-01  linmin: -7.847e-04  t[s]:   4908.50
ElecMinimize: 	Predicted alpha/alphaT>3.000000, increasing alphaT to 3.126827e-01.
	FillingsUpdate:  mu: -0.070519806  nElectrons: 233.000000  magneticMoment: [ Abs: 0.00378  Tot: -0.00274 ]
	SubspaceRotationAdjust: set factor to 0.503
ElecMinimize: Iter:   3  G: -371.354145615173991  |grad|_K:  4.010e-05  alpha:  3.350e-01  linmin: -3.955e-05  t[s]:   5094.83
	FillingsUpdate:  mu: -0.103861261  nElectrons: 233.000000  magneticMoment: [ Abs: 0.00310  Tot: -0.00252 ]
	SubspaceRotationAdjust: set factor to 0.313
ElecMinimize: Iter:   4  G: -371.390187938662848  |grad|_K:  2.150e-05  alpha:  1.358e-01  linmin:  3.195e-04  t[s]:   5243.71
ElecMinimize: 	Predicted alpha/alphaT>3.000000, increasing alphaT to 4.074268e-01.
	FillingsUpdate:  mu: -0.115686688  nElectrons: 233.000000  magneticMoment: [ Abs: 0.00388  Tot: -0.00361 ]
	SubspaceRotationAdjust: set factor to 0.447
ElecMinimize: Iter:   5  G: -371.428031232433796  |grad|_K:  1.534e-05  alpha:  4.696e-01  linmin:  9.297e-07  t[s]:   5431.75
	FillingsUpdate:  mu: -0.070627044  nElectrons: 233.000000  magneticMoment: [ Abs: 0.00603  Tot: -0.00578 ]
	SubspaceRotationAdjust: set factor to 0.364
ElecMinimize: Iter:   6  G: -371.444193229692132  |grad|_K:  9.105e-06  alpha:  3.121e-01  linmin:  2.417e-06  t[s]:   5580.26
	FillingsUpdate:  mu: -0.070490125  nElectrons: 233.000000  magneticMoment: [ Abs: 0.00896  Tot: -0.00866 ]
	SubspaceRotationAdjust: set factor to 0.418
ElecMinimize: Iter:   7  G: -371.453759503977949  |grad|_K:  5.999e-06  alpha:  5.297e-01  linmin: -1.440e-06  t[s]:   5729.07
	FillingsUpdate:  mu: -0.084028992  nElectrons: 233.000000  magneticMoment: [ Abs: 0.01154  Tot: -0.01114 ]
	SubspaceRotationAdjust: set factor to 0.368
ElecMinimize: Iter:   8  G: -371.457310624761419  |grad|_K:  4.627e-06  alpha:  4.533e-01  linmin: -1.018e-05  t[s]:   5877.58
	FillingsUpdate:  mu: -0.074027630  nElectrons: 233.000000  magneticMoment: [ Abs: 0.01623  Tot: -0.01569 ]
	SubspaceRotationAdjust: set factor to 0.335
ElecMinimize: Iter:   9  G: -371.458811944516071  |grad|_K:  2.404e-06  alpha:  3.192e-01  linmin:  3.445e-06  t[s]:   6026.67
	FillingsUpdate:  mu: -0.073794756  nElectrons: 233.000000  magneticMoment: [ Abs: 0.02490  Tot: -0.02408 ]
	SubspaceRotationAdjust: set factor to 0.366
ElecMinimize: Iter:  10  G: -371.459604201458660  |grad|_K:  1.818e-06  alpha:  6.303e-01  linmin:  3.180e-06  t[s]:   6175.45
	FillingsUpdate:  mu: -0.077156040  nElectrons: 233.000000  magneticMoment: [ Abs: 0.03385  Tot: -0.03271 ]
	SubspaceRotationAdjust: set factor to 0.31
ElecMinimize: Iter:  11  G: -371.459917708497642  |grad|_K:  1.318e-06  alpha:  4.364e-01  linmin:  7.757e-08  t[s]:   6324.14
	FillingsUpdate:  mu: -0.074800125  nElectrons: 233.000000  magneticMoment: [ Abs: 0.04808  Tot: -0.04648 ]
	SubspaceRotationAdjust: set factor to 0.288
ElecMinimize: Iter:  12  G: -371.460075901417099  |grad|_K:  8.766e-07  alpha:  4.176e-01  linmin:  1.514e-06  t[s]:   6473.89
	FillingsUpdate:  mu: -0.074627583  nElectrons: 233.000000  magneticMoment: [ Abs: 0.07378  Tot: -0.07126 ]
	SubspaceRotationAdjust: set factor to 0.327
ElecMinimize: Iter:  13  G: -371.460181991826346  |grad|_K:  6.643e-07  alpha:  6.344e-01  linmin:  1.182e-06  t[s]:   6622.81
	FillingsUpdate:  mu: -0.076060710  nElectrons: 233.000000  magneticMoment: [ Abs: 0.10644  Tot: -0.10265 ]
	SubspaceRotationAdjust: set factor to 0.351
ElecMinimize: Iter:  14  G: -371.460236036161234  |grad|_K:  6.758e-07  alpha:  5.628e-01  linmin: -3.170e-06  t[s]:   6771.88
	FillingsUpdate:  mu: -0.075004774  nElectrons: 233.000000  magneticMoment: [ Abs: 0.21043  Tot: -0.20278 ]
	SubspaceRotationAdjust: set factor to 0.395
ElecMinimize: Iter:  15  G: -371.460320952689017  |grad|_K:  1.056e-06  alpha:  8.871e-01  linmin:  9.918e-05  t[s]:   6920.54
	FillingsUpdate:  mu: -0.074683603  nElectrons: 233.000000  magneticMoment: [ Abs: 0.36971  Tot: -0.35495 ]
	SubspaceRotationAdjust: set factor to 0.447
ElecMinimize: Iter:  16  G: -371.460456178804350  |grad|_K:  1.682e-06  alpha:  4.600e-01  linmin: -1.158e-04  t[s]:   7069.27
	FillingsUpdate:  mu: -0.074887379  nElectrons: 233.000000  magneticMoment: [ Abs: 0.48759  Tot: -0.46414 ]
	SubspaceRotationAdjust: set factor to 0.569
ElecMinimize: Iter:  17  G: -371.460574549931323  |grad|_K:  1.900e-06  alpha:  1.606e-01  linmin:  1.560e-06  t[s]:   7219.02
	FillingsUpdate:  mu: -0.075899104  nElectrons: 233.000000  magneticMoment: [ Abs: 0.54785  Tot: -0.51522 ]
	SubspaceRotationAdjust: set factor to 0.746
ElecMinimize: Iter:  18  G: -371.460645112032694  |grad|_K:  1.791e-06  alpha:  9.473e-02  linmin:  1.566e-05  t[s]:   7367.86
	FillingsUpdate:  mu: -0.077813593  nElectrons: 233.000000  magneticMoment: [ Abs: 0.58024  Tot: -0.53770 ]
	SubspaceRotationAdjust: set factor to 0.884
ElecMinimize: Iter:  19  G: -371.460703360535376  |grad|_K:  1.604e-06  alpha:  8.505e-02  linmin: -5.448e-05  t[s]:   7517.53
	FillingsUpdate:  mu: -0.079844706  nElectrons: 233.000000  magneticMoment: [ Abs: 0.60489  Tot: -0.54906 ]
	SubspaceRotationAdjust: set factor to 1.03
ElecMinimize: Iter:  20  G: -371.460764881239129  |grad|_K:  1.665e-06  alpha:  1.052e-01  linmin: -1.127e-04  t[s]:   7667.42
	FillingsUpdate:  mu: -0.079818557  nElectrons: 233.000000  magneticMoment: [ Abs: 0.63228  Tot: -0.55432 ]
	SubspaceRotationAdjust: set factor to 1.43
ElecMinimize: Iter:  21  G: -371.460841564019688  |grad|_K:  1.498e-06  alpha:  1.201e-01  linmin: -5.458e-05  t[s]:   7816.17
	FillingsUpdate:  mu: -0.077694413  nElectrons: 233.000000  magneticMoment: [ Abs: 0.65135  Tot: -0.55570 ]
	SubspaceRotationAdjust: set factor to 1.48
ElecMinimize: Iter:  22  G: -371.460888544281261  |grad|_K:  1.183e-06  alpha:  9.258e-02  linmin: -3.177e-06  t[s]:   7964.71
	FillingsUpdate:  mu: -0.076262900  nElectrons: 233.000000  magneticMoment: [ Abs: 0.67047  Tot: -0.55673 ]
	SubspaceRotationAdjust: set factor to 1.61
ElecMinimize: Iter:  23  G: -371.460931927381807  |grad|_K:  1.401e-06  alpha:  1.417e-01  linmin:  1.519e-07  t[s]:   8114.25
	FillingsUpdate:  mu: -0.077423190  nElectrons: 233.000000  magneticMoment: [ Abs: 0.68651  Tot: -0.55741 ]
	SubspaceRotationAdjust: set factor to 2.04
ElecMinimize: Iter:  24  G: -371.460974546870375  |grad|_K:  1.099e-06  alpha:  1.002e-01  linmin: -5.121e-07  t[s]:   8262.66
	FillingsUpdate:  mu: -0.079277564  nElectrons: 233.000000  magneticMoment: [ Abs: 0.69379  Tot: -0.55738 ]
	SubspaceRotationAdjust: set factor to 1.94
ElecMinimize: Iter:  25  G: -371.461004754726616  |grad|_K:  1.344e-06  alpha:  1.146e-01  linmin: -1.671e-06  t[s]:   8411.12
	FillingsUpdate:  mu: -0.078563913  nElectrons: 233.000000  magneticMoment: [ Abs: 0.70480  Tot: -0.55746 ]
	SubspaceRotationAdjust: set factor to 2.37
ElecMinimize: Iter:  26  G: -371.461053273305879  |grad|_K:  1.149e-06  alpha:  1.227e-01  linmin:  1.686e-06  t[s]:   8559.69
	FillingsUpdate:  mu: -0.076724128  nElectrons: 233.000000  magneticMoment: [ Abs: 0.70830  Tot: -0.55737 ]
	SubspaceRotationAdjust: set factor to 2.28
ElecMinimize: Iter:  27  G: -371.461080860966717  |grad|_K:  1.274e-06  alpha:  9.602e-02  linmin:  2.455e-07  t[s]:   8709.42
	FillingsUpdate:  mu: -0.076992146  nElectrons: 233.000000  magneticMoment: [ Abs: 0.70295  Tot: -0.55635 ]
	SubspaceRotationAdjust: set factor to 2.74
ElecMinimize: Iter:  28  G: -371.461123576202226  |grad|_K:  1.156e-06  alpha:  1.214e-01  linmin:  1.068e-05  t[s]:   8858.80
	FillingsUpdate:  mu: -0.078615256  nElectrons: 233.000000  magneticMoment: [ Abs: 0.69431  Tot: -0.55563 ]
	SubspaceRotationAdjust: set factor to 2.82
ElecMinimize: Iter:  29  G: -371.461148987456795  |grad|_K:  1.271e-06  alpha:  8.779e-02  linmin: -2.059e-06  t[s]:   9007.44
	FillingsUpdate:  mu: -0.077953511  nElectrons: 233.000000  magneticMoment: [ Abs: 0.68071  Tot: -0.55472 ]
	SubspaceRotationAdjust: set factor to 3.85
ElecMinimize: Iter:  30  G: -371.461186483091581  |grad|_K:  1.066e-06  alpha:  1.064e-01  linmin:  1.366e-06  t[s]:   9155.47
	FillingsUpdate:  mu: -0.076467230  nElectrons: 233.000000  magneticMoment: [ Abs: 0.67293  Tot: -0.55431 ]
	SubspaceRotationAdjust: set factor to 3.36
ElecMinimize: Iter:  31  G: -371.461207533082643  |grad|_K:  1.312e-06  alpha:  8.522e-02  linmin: -6.292e-07  t[s]:   9303.88
	FillingsUpdate:  mu: -0.077497400  nElectrons: 233.000000  magneticMoment: [ Abs: 0.66083  Tot: -0.55363 ]
	SubspaceRotationAdjust: set factor to 3.96
ElecMinimize: Iter:  32  G: -371.461233810901604  |grad|_K:  9.841e-07  alpha:  7.006e-02  linmin: -1.913e-06  t[s]:   9452.29
	FillingsUpdate:  mu: -0.078303033  nElectrons: 233.000000  magneticMoment: [ Abs: 0.65290  Tot: -0.55396 ]
	SubspaceRotationAdjust: set factor to 3.23
ElecMinimize: Iter:  33  G: -371.461262193575408  |grad|_K:  1.171e-06  alpha:  1.326e-01  linmin: -1.138e-05  t[s]:   9600.89
	FillingsUpdate:  mu: -0.076933929  nElectrons: 233.000000  magneticMoment: [ Abs: 0.65300  Tot: -0.55468 ]
	SubspaceRotationAdjust: set factor to 3.16
ElecMinimize: Iter:  34  G: -371.461278244676805  |grad|_K:  9.888e-07  alpha:  5.321e-02  linmin:  5.275e-06  t[s]:   9749.25
	FillingsUpdate:  mu: -0.077237320  nElectrons: 233.000000  magneticMoment: [ Abs: 0.65573  Tot: -0.55547 ]
	SubspaceRotationAdjust: set factor to 4.57
ElecMinimize: Iter:  35  G: -371.461302545350463  |grad|_K:  8.463e-07  alpha:  1.141e-01  linmin: -3.437e-06  t[s]:   9897.76
	FillingsUpdate:  mu: -0.078398058  nElectrons: 233.000000  magneticMoment: [ Abs: 0.65877  Tot: -0.55567 ]
	SubspaceRotationAdjust: set factor to 3.76
ElecMinimize: Iter:  36  G: -371.461315988491208  |grad|_K:  1.055e-06  alpha:  8.581e-02  linmin: -5.210e-07  t[s]:  10047.44
	FillingsUpdate:  mu: -0.077358169  nElectrons: 233.000000  magneticMoment: [ Abs: 0.66520  Tot: -0.55596 ]
	SubspaceRotationAdjust: set factor to 3.42
ElecMinimize: Iter:  37  G: -371.461329433996013  |grad|_K:  7.177e-07  alpha:  5.537e-02  linmin: -3.116e-08  t[s]:  10195.99
	FillingsUpdate:  mu: -0.077188917  nElectrons: 233.000000  magneticMoment: [ Abs: 0.67222  Tot: -0.55591 ]
	SubspaceRotationAdjust: set factor to 4.12
ElecMinimize: Iter:  38  G: -371.461345340676303  |grad|_K:  7.054e-07  alpha:  1.419e-01  linmin:  1.257e-06  t[s]:  10344.47
	FillingsUpdate:  mu: -0.078159419  nElectrons: 233.000000  magneticMoment: [ Abs: 0.67383  Tot: -0.55568 ]
	SubspaceRotationAdjust: set factor to 3.36
ElecMinimize: Iter:  39  G: -371.461354613091032  |grad|_K:  8.246e-07  alpha:  8.572e-02  linmin:  2.008e-08  t[s]:  10492.99
	FillingsUpdate:  mu: -0.077368278  nElectrons: 233.000000  magneticMoment: [ Abs: 0.67536  Tot: -0.55554 ]
	SubspaceRotationAdjust: set factor to 3.69
ElecMinimize: Iter:  40  G: -371.461364978644042  |grad|_K:  6.075e-07  alpha:  6.989e-02  linmin:  8.184e-07  t[s]:  10641.55
	FillingsUpdate:  mu: -0.077314183  nElectrons: 233.000000  magneticMoment: [ Abs: 0.67204  Tot: -0.55527 ]
	SubspaceRotationAdjust: set factor to 4.67
ElecMinimize: Iter:  41  G: -371.461376253042374  |grad|_K:  5.589e-07  alpha:  1.404e-01  linmin:  7.605e-07  t[s]:  10790.01
	FillingsUpdate:  mu: -0.077955456  nElectrons: 233.000000  magneticMoment: [ Abs: 0.66659  Tot: -0.55508 ]
	SubspaceRotationAdjust: set factor to 4.1
ElecMinimize: Iter:  42  G: -371.461383041394299  |grad|_K:  6.864e-07  alpha:  9.986e-02  linmin:  6.137e-08  t[s]:  10937.94
	FillingsUpdate:  mu: -0.077194576  nElectrons: 233.000000  magneticMoment: [ Abs: 0.66254  Tot: -0.55512 ]
	SubspaceRotationAdjust: set factor to 3.43
ElecMinimize: Iter:  43  G: -371.461388209960774  |grad|_K:  5.256e-07  alpha:  5.015e-02  linmin: -8.465e-07  t[s]:  11086.12
	FillingsUpdate:  mu: -0.077381750  nElectrons: 233.000000  magneticMoment: [ Abs: 0.65488  Tot: -0.55517 ]
	SubspaceRotationAdjust: set factor to 4.2
ElecMinimize: Iter:  44  G: -371.461395477786539  |grad|_K:  4.499e-07  alpha:  1.203e-01  linmin: -1.958e-06  t[s]:  11235.36
	FillingsUpdate:  mu: -0.077851948  nElectrons: 233.000000  magneticMoment: [ Abs: 0.64972  Tot: -0.55527 ]
	SubspaceRotationAdjust: set factor to 3.65
ElecMinimize: Iter:  45  G: -371.461401571931845  |grad|_K:  5.635e-07  alpha:  1.378e-01  linmin: -8.620e-07  t[s]:  11383.91
	FillingsUpdate:  mu: -0.077183118  nElectrons: 233.000000  magneticMoment: [ Abs: 0.64867  Tot: -0.55543 ]
	SubspaceRotationAdjust: set factor to 3.27
ElecMinimize: Iter:  46  G: -371.461405430915136  |grad|_K:  4.945e-07  alpha:  5.576e-02  linmin:  1.816e-07  t[s]:  11532.52
	FillingsUpdate:  mu: -0.077424896  nElectrons: 233.000000  magneticMoment: [ Abs: 0.64855  Tot: -0.55552 ]
	SubspaceRotationAdjust: set factor to 4.05
ElecMinimize: Iter:  47  G: -371.461411250343758  |grad|_K:  4.085e-07  alpha:  1.093e-01  linmin:  3.401e-07  t[s]:  11681.97
	FillingsUpdate:  mu: -0.077922728  nElectrons: 233.000000  magneticMoment: [ Abs: 0.65054  Tot: -0.55549 ]
	SubspaceRotationAdjust: set factor to 3.24
ElecMinimize: Iter:  48  G: -371.461415962935064  |grad|_K:  5.386e-07  alpha:  1.298e-01  linmin:  1.282e-06  t[s]:  11831.52
	FillingsUpdate:  mu: -0.077341027  nElectrons: 233.000000  magneticMoment: [ Abs: 0.65350  Tot: -0.55551 ]
	SubspaceRotationAdjust: set factor to 3.1
ElecMinimize: Iter:  49  G: -371.461419250348399  |grad|_K:  4.018e-07  alpha:  5.183e-02  linmin: -3.553e-06  t[s]:  11980.71
	FillingsUpdate:  mu: -0.077302491  nElectrons: 233.000000  magneticMoment: [ Abs: 0.65770  Tot: -0.55540 ]
	SubspaceRotationAdjust: set factor to 4.02
ElecMinimize: Iter:  50  G: -371.461423757354169  |grad|_K:  3.841e-07  alpha:  1.278e-01  linmin:  2.642e-06  t[s]:  12128.84
	FillingsUpdate:  mu: -0.077820994  nElectrons: 233.000000  magneticMoment: [ Abs: 0.65937  Tot: -0.55529 ]
	SubspaceRotationAdjust: set factor to 3.75
ElecMinimize: Iter:  51  G: -371.461426217628343  |grad|_K:  4.329e-07  alpha:  7.677e-02  linmin: -3.287e-07  t[s]:  12276.77
	FillingsUpdate:  mu: -0.077469290  nElectrons: 233.000000  magneticMoment: [ Abs: 0.66186  Tot: -0.55526 ]
	SubspaceRotationAdjust: set factor to 4.1
ElecMinimize: Iter:  52  G: -371.461429440939241  |grad|_K:  3.272e-07  alpha:  7.885e-02  linmin: -2.200e-07  t[s]:  12424.93
	FillingsUpdate:  mu: -0.077358640  nElectrons: 233.000000  magneticMoment: [ Abs: 0.66241  Tot: -0.55527 ]
	SubspaceRotationAdjust: set factor to 4.8
ElecMinimize: Iter:  53  G: -371.461432736961626  |grad|_K:  3.548e-07  alpha:  1.408e-01  linmin: -2.061e-06  t[s]:  12574.50
	FillingsUpdate:  mu: -0.077855052  nElectrons: 233.000000  magneticMoment: [ Abs: 0.66114  Tot: -0.55526 ]
	SubspaceRotationAdjust: set factor to 4.01
ElecMinimize: Iter:  54  G: -371.461434779083675  |grad|_K:  4.267e-07  alpha:  7.412e-02  linmin:  4.511e-07  t[s]:  12722.84
	FillingsUpdate:  mu: -0.077486222  nElectrons: 233.000000  magneticMoment: [ Abs: 0.65968  Tot: -0.55536 ]
	SubspaceRotationAdjust: set factor to 4
ElecMinimize: Iter:  55  G: -371.461437287540036  |grad|_K:  3.133e-07  alpha:  6.326e-02  linmin:  2.060e-07  t[s]:  12871.50
	FillingsUpdate:  mu: -0.077526294  nElectrons: 233.000000  magneticMoment: [ Abs: 0.65712  Tot: -0.55545 ]
	SubspaceRotationAdjust: set factor to 4.88
ElecMinimize: Iter:  56  G: -371.461440144025630  |grad|_K:  2.824e-07  alpha:  1.335e-01  linmin:  2.205e-08  t[s]:  13020.55
	FillingsUpdate:  mu: -0.077781544  nElectrons: 233.000000  magneticMoment: [ Abs: 0.65581  Tot: -0.55546 ]
	SubspaceRotationAdjust: set factor to 4.65
ElecMinimize: Iter:  57  G: -371.461442143850888  |grad|_K:  3.189e-07  alpha:  1.151e-01  linmin: -1.031e-07  t[s]:  13169.76
	FillingsUpdate:  mu: -0.077415754  nElectrons: 233.000000  magneticMoment: [ Abs: 0.65613  Tot: -0.55550 ]
	SubspaceRotationAdjust: set factor to 3.77
ElecMinimize: Iter:  58  G: -371.461443185256371  |grad|_K:  2.844e-07  alpha:  4.696e-02  linmin: -1.870e-07  t[s]:  13318.74
	FillingsUpdate:  mu: -0.077596538  nElectrons: 233.000000  magneticMoment: [ Abs: 0.65705  Tot: -0.55546 ]
	SubspaceRotationAdjust: set factor to 4.43
ElecMinimize: Iter:  59  G: -371.461444861905136  |grad|_K:  2.288e-07  alpha:  9.530e-02  linmin:  2.913e-06  t[s]:  13468.53
	FillingsUpdate:  mu: -0.077715764  nElectrons: 233.000000  magneticMoment: [ Abs: 0.65884  Tot: -0.55539 ]
	SubspaceRotationAdjust: set factor to 4.51
ElecMinimize: Iter:  60  G: -371.461446380477810  |grad|_K:  2.418e-07  alpha:  1.337e-01  linmin:  3.828e-07  t[s]:  13617.30
	FillingsUpdate:  mu: -0.077409710  nElectrons: 233.000000  magneticMoment: [ Abs: 0.66027  Tot: -0.55540 ]
	SubspaceRotationAdjust: set factor to 4.05
ElecMinimize: Iter:  61  G: -371.461447138882420  |grad|_K:  2.497e-07  alpha:  5.946e-02  linmin: -3.977e-07  t[s]:  13765.83
	FillingsUpdate:  mu: -0.077595909  nElectrons: 233.000000  magneticMoment: [ Abs: 0.66164  Tot: -0.55536 ]
	SubspaceRotationAdjust: set factor to 4.29
ElecMinimize: Iter:  62  G: -371.461448116209681  |grad|_K:  1.824e-07  alpha:  7.185e-02  linmin: -2.095e-07  t[s]:  13914.64
	FillingsUpdate:  mu: -0.077638093  nElectrons: 233.000000  magneticMoment: [ Abs: 0.66270  Tot: -0.55537 ]
	SubspaceRotationAdjust: set factor to 4.74
ElecMinimize: Iter:  63  G: -371.461449061143583  |grad|_K:  1.834e-07  alpha:  1.300e-01  linmin: -1.562e-06  t[s]:  14063.11
	FillingsUpdate:  mu: -0.077382385  nElectrons: 233.000000  magneticMoment: [ Abs: 0.66310  Tot: -0.55542 ]
	SubspaceRotationAdjust: set factor to 3.7
ElecMinimize: Iter:  64  G: -371.461449682971534  |grad|_K:  2.357e-07  alpha:  8.455e-02  linmin:  1.049e-08  t[s]:  14211.17
	FillingsUpdate:  mu: -0.077590934  nElectrons: 233.000000  magneticMoment: [ Abs: 0.66262  Tot: -0.55542 ]
	SubspaceRotationAdjust: set factor to 3.73
ElecMinimize: Iter:  65  G: -371.461450380403448  |grad|_K:  1.731e-07  alpha:  5.758e-02  linmin: -1.818e-07  t[s]:  14360.57
	FillingsUpdate:  mu: -0.077567961  nElectrons: 233.000000  magneticMoment: [ Abs: 0.66148  Tot: -0.55544 ]
	SubspaceRotationAdjust: set factor to 4.85
ElecMinimize: Iter:  66  G: -371.461451325138114  |grad|_K:  1.730e-07  alpha:  1.447e-01  linmin:  1.800e-07  t[s]:  14508.49
	FillingsUpdate:  mu: -0.077345360  nElectrons: 233.000000  magneticMoment: [ Abs: 0.66069  Tot: -0.55546 ]
	SubspaceRotationAdjust: set factor to 4.05
ElecMinimize: Iter:  67  G: -371.461451938641801  |grad|_K:  2.127e-07  alpha:  9.412e-02  linmin: -1.190e-07  t[s]:  14657.90
	FillingsUpdate:  mu: -0.077555930  nElectrons: 233.000000  magneticMoment: [ Abs: 0.65975  Tot: -0.55542 ]
	SubspaceRotationAdjust: set factor to 3.25
ElecMinimize: Iter:  68  G: -371.461452398534220  |grad|_K:  1.530e-07  alpha:  4.661e-02  linmin: -9.463e-08  t[s]:  14807.75
	FillingsUpdate:  mu: -0.077549916  nElectrons: 233.000000  magneticMoment: [ Abs: 0.65888  Tot: -0.55538 ]
	SubspaceRotationAdjust: set factor to 3.75
ElecMinimize: Iter:  69  G: -371.461453091741589  |grad|_K:  1.537e-07  alpha:  1.363e-01  linmin:  2.939e-06  t[s]:  14956.68
	FillingsUpdate:  mu: -0.077374441  nElectrons: 233.000000  magneticMoment: [ Abs: 0.65868  Tot: -0.55536 ]
	SubspaceRotationAdjust: set factor to 3.34
ElecMinimize: Iter:  70  G: -371.461453658600703  |grad|_K:  1.858e-07  alpha:  1.107e-01  linmin:  1.669e-07  t[s]:  15105.28
	FillingsUpdate:  mu: -0.077573655  nElectrons: 233.000000  magneticMoment: [ Abs: 0.65849  Tot: -0.55532 ]
	SubspaceRotationAdjust: set factor to 3.48
ElecMinimize: Iter:  71  G: -371.461454138687657  |grad|_K:  1.454e-07  alpha:  6.381e-02  linmin: -4.168e-08  t[s]:  15253.39
	FillingsUpdate:  mu: -0.077562417  nElectrons: 233.000000  magneticMoment: [ Abs: 0.65898  Tot: -0.55533 ]
	SubspaceRotationAdjust: set factor to 4.54
ElecMinimize: Iter:  72  G: -371.461454713917703  |grad|_K:  1.315e-07  alpha:  1.248e-01  linmin: -3.018e-07  t[s]:  15402.80
	FillingsUpdate:  mu: -0.077426554  nElectrons: 233.000000  magneticMoment: [ Abs: 0.65968  Tot: -0.55537 ]
	SubspaceRotationAdjust: set factor to 4.08
ElecMinimize: Iter:  73  G: -371.461455080730559  |grad|_K:  1.511e-07  alpha:  9.735e-02  linmin: -1.802e-07  t[s]:  15550.63
	FillingsUpdate:  mu: -0.077585220  nElectrons: 233.000000  magneticMoment: [ Abs: 0.66000  Tot: -0.55538 ]
	SubspaceRotationAdjust: set factor to 3.4
ElecMinimize: Iter:  74  G: -371.461455323191956  |grad|_K:  1.145e-07  alpha:  4.878e-02  linmin:  2.292e-07  t[s]:  15698.54
	FillingsUpdate:  mu: -0.077554608  nElectrons: 233.000000  magneticMoment: [ Abs: 0.66065  Tot: -0.55542 ]
	SubspaceRotationAdjust: set factor to 3.8
ElecMinimize: Iter:  75  G: -371.461455642555904  |grad|_K:  1.009e-07  alpha:  1.117e-01  linmin: -1.401e-06  t[s]:  15846.74
	FillingsUpdate:  mu: -0.077455613  nElectrons: 233.000000  magneticMoment: [ Abs: 0.66110  Tot: -0.55546 ]
	SubspaceRotationAdjust: set factor to 3.29
ElecMinimize: Iter:  76  G: -371.461455907466586  |grad|_K:  1.206e-07  alpha:  1.190e-01  linmin:  1.991e-07  t[s]:  15994.65
	FillingsUpdate:  mu: -0.077592444  nElectrons: 233.000000  magneticMoment: [ Abs: 0.66107  Tot: -0.55545 ]
	SubspaceRotationAdjust: set factor to 3.42
ElecMinimize: Iter:  77  G: -371.461456104082572  |grad|_K:  1.011e-07  alpha:  6.214e-02  linmin: -1.064e-07  t[s]:  16142.45
	FillingsUpdate:  mu: -0.077560126  nElectrons: 233.000000  magneticMoment: [ Abs: 0.66093  Tot: -0.55544 ]
	SubspaceRotationAdjust: set factor to 4.8
ElecMinimize: Iter:  78  G: -371.461456354102211  |grad|_K:  8.573e-08  alpha:  1.124e-01  linmin:  1.468e-06  t[s]:  16290.17
	FillingsUpdate:  mu: -0.077458607  nElectrons: 233.000000  magneticMoment: [ Abs: 0.66064  Tot: -0.55543 ]
	SubspaceRotationAdjust: set factor to 4.15
ElecMinimize: Iter:  79  G: -371.461456518415162  |grad|_K:  1.076e-07  alpha:  1.029e-01  linmin:  5.539e-07  t[s]:  16439.85
	FillingsUpdate:  mu: -0.077563039  nElectrons: 233.000000  magneticMoment: [ Abs: 0.66014  Tot: -0.55539 ]
	SubspaceRotationAdjust: set factor to 3.55
ElecMinimize: Iter:  80  G: -371.461456635641753  |grad|_K:  8.391e-08  alpha:  4.655e-02  linmin: -3.177e-07  t[s]:  16588.47
	FillingsUpdate:  mu: -0.077543930  nElectrons: 233.000000  magneticMoment: [ Abs: 0.65944  Tot: -0.55536 ]
	SubspaceRotationAdjust: set factor to 4.3
ElecMinimize: Iter:  81  G: -371.461456807278694  |grad|_K:  7.717e-08  alpha:  1.118e-01  linmin:  1.806e-07  t[s]:  16737.97
	FillingsUpdate:  mu: -0.077450259  nElectrons: 233.000000  magneticMoment: [ Abs: 0.65908  Tot: -0.55535 ]
	SubspaceRotationAdjust: set factor to 3.47
ElecMinimize: Iter:  82  G: -371.461456935841909  |grad|_K:  1.000e-07  alpha:  9.909e-02  linmin:  5.400e-08  t[s]:  16887.45
	FillingsUpdate:  mu: -0.077552655  nElectrons: 233.000000  magneticMoment: [ Abs: 0.65868  Tot: -0.55534 ]
	SubspaceRotationAdjust: set factor to 3.82
ElecMinimize: Iter:  83  G: -371.461457062128545  |grad|_K:  7.593e-08  alpha:  5.789e-02  linmin:  1.513e-07  t[s]:  17035.40
	FillingsUpdate:  mu: -0.077563272  nElectrons: 233.000000  magneticMoment: [ Abs: 0.65861  Tot: -0.55536 ]
	SubspaceRotationAdjust: set factor to 4.58
ElecMinimize: Iter:  84  G: -371.461457218804469  |grad|_K:  7.519e-08  alpha:  1.245e-01  linmin: -8.625e-07  t[s]:  17183.60
	FillingsUpdate:  mu: -0.077466406  nElectrons: 233.000000  magneticMoment: [ Abs: 0.65887  Tot: -0.55539 ]
	SubspaceRotationAdjust: set factor to 3.82
ElecMinimize: Iter:  85  G: -371.461457314121617  |grad|_K:  8.945e-08  alpha:  7.716e-02  linmin:  1.629e-07  t[s]:  17331.47
	FillingsUpdate:  mu: -0.077539148  nElectrons: 233.000000  magneticMoment: [ Abs: 0.65916  Tot: -0.55541 ]
	SubspaceRotationAdjust: set factor to 4.02
ElecMinimize: Iter:  86  G: -371.461457416131736  |grad|_K:  6.486e-08  alpha:  5.848e-02  linmin: -1.679e-07  t[s]:  17479.12
	FillingsUpdate:  mu: -0.077549542  nElectrons: 233.000000  magneticMoment: [ Abs: 0.65972  Tot: -0.55542 ]
	SubspaceRotationAdjust: set factor to 4.7
ElecMinimize: Iter:  87  G: -371.461457528746791  |grad|_K:  6.521e-08  alpha:  1.225e-01  linmin: -8.743e-07  t[s]:  17627.11
	FillingsUpdate:  mu: -0.077469303  nElectrons: 233.000000  magneticMoment: [ Abs: 0.66017  Tot: -0.55543 ]
	SubspaceRotationAdjust: set factor to 3.87
ElecMinimize: Iter:  88  G: -371.461457601266773  |grad|_K:  7.942e-08  alpha:  7.798e-02  linmin:  5.205e-09  t[s]:  17775.04
	FillingsUpdate:  mu: -0.077543632  nElectrons: 233.000000  magneticMoment: [ Abs: 0.66046  Tot: -0.55542 ]
	SubspaceRotationAdjust: set factor to 4.21
ElecMinimize: Iter:  89  G: -371.461457683079061  |grad|_K:  5.855e-08  alpha:  5.953e-02  linmin: -3.177e-07  t[s]:  17923.06
ElecMinimize: Converged (|Delta G|<1.000000e-07 for 2 iters).
Setting wave functions to eigenvectors of Hamiltonian
Converging empty states (this may take a while): |deigs|: 3.538e-03
Vacuum energy after initial minimize, F = -371.461457683079061

Shifting auxilliary hamiltonian by -0.067956 to set nElectrons=233.000000

-------- Electronic minimization -----------
	Linear fluid (dielectric constant: 78.4, screening length: 8.12261 Bohr) occupying 0.707002 of unit cell:	Completed after 23 iterations at t[s]:  18778.73
	FillingsUpdate:  mu: -0.145500000  nElectrons: 233.000000  magneticMoment: [ Abs: 0.66026  Tot: -0.55541 ]
ElecMinimize: Iter:   0  G: -371.469646274958677  |grad|_K:  8.991e-06  alpha:  1.000e+00
	Linear fluid (dielectric constant: 78.4, screening length: 8.12261 Bohr) occupying 0.720083 of unit cell:	Completed after 26 iterations at t[s]:  18929.50
	Linear fluid (dielectric constant: 78.4, screening length: 8.12261 Bohr) occupying 0.707433 of unit cell:	Completed after 24 iterations at t[s]:  18995.45
	FillingsUpdate:  mu: -0.145500000  nElectrons: 232.956890  magneticMoment: [ Abs: 0.63498  Tot: -0.51511 ]
	SubspaceRotationAdjust: set factor to 2.86
ElecMinimize: Iter:   1  G: -371.471490926539104  |grad|_K:  5.883e-06  alpha:  7.835e-02  linmin: -1.437e-03  t[s]:  19059.84
	Linear fluid (dielectric constant: 78.4, screening length: 8.12261 Bohr) occupying 0.708380 of unit cell:	Completed after 17 iterations at t[s]:  19129.09
	Linear fluid (dielectric constant: 78.4, screening length: 8.12261 Bohr) occupying 0.707664 of unit cell:	Completed after 17 iterations at t[s]:  19189.84
	FillingsUpdate:  mu: -0.145500000  nElectrons: 232.984666  magneticMoment: [ Abs: 0.66448  Tot: -0.54377 ]
	SubspaceRotationAdjust: set factor to 1.81
ElecMinimize: Iter:   2  G: -371.471715863600025  |grad|_K:  6.698e-06  alpha:  2.077e-02  linmin: -7.837e-05  t[s]:  19256.58
	Linear fluid (dielectric constant: 78.4, screening length: 8.12261 Bohr) occupying 0.707870 of unit cell:	Completed after 9 iterations at t[s]:  19319.26
ElecMinimize: 	Predicted alpha/alphaT>3.000000, increasing alphaT to 6.230050e-02.
	Linear fluid (dielectric constant: 78.4, screening length: 8.12261 Bohr) occupying 0.708298 of unit cell:	Completed after 10 iterations at t[s]:  19373.57
	Linear fluid (dielectric constant: 78.4, screening length: 8.12261 Bohr) occupying 0.708332 of unit cell:	Completed after 4 iterations at t[s]:  19422.97
	FillingsUpdate:  mu: -0.145500000  nElectrons: 232.972509  magneticMoment: [ Abs: 0.67656  Tot: -0.54491 ]
	SubspaceRotationAdjust: set factor to 1.05
ElecMinimize: Iter:   3  G: -371.472386412501521  |grad|_K:  8.420e-06  alpha:  6.553e-02  linmin:  9.891e-06  t[s]:  19486.98
	Linear fluid (dielectric constant: 78.4, screening length: 8.12261 Bohr) occupying 0.708742 of unit cell:	Completed after 17 iterations at t[s]:  19556.23
	Linear fluid (dielectric constant: 78.4, screening length: 8.12261 Bohr) occupying 0.708465 of unit cell:	Completed after 17 iterations at t[s]:  19616.19
	FillingsUpdate:  mu: -0.145500000  nElectrons: 232.927491  magneticMoment: [ Abs: 0.65067  Tot: -0.51548 ]
	SubspaceRotationAdjust: set factor to 1.58
ElecMinimize: Iter:   4  G: -371.472674666420858  |grad|_K:  3.491e-06  alpha:  1.794e-02  linmin: -5.872e-05  t[s]:  19683.34
	Linear fluid (dielectric constant: 78.4, screening length: 8.12261 Bohr) occupying 0.708478 of unit cell:	Completed after 8 iterations at t[s]:  19744.41
ElecMinimize: 	Predicted alpha/alphaT>3.000000, increasing alphaT to 5.382149e-02.
	Linear fluid (dielectric constant: 78.4, screening length: 8.12261 Bohr) occupying 0.708504 of unit cell:	Completed after 12 iterations at t[s]:  19800.36
	Linear fluid (dielectric constant: 78.4, screening length: 8.12261 Bohr) occupying 0.708511 of unit cell:	Completed after 8 iterations at t[s]:  19853.31
	FillingsUpdate:  mu: -0.145500000  nElectrons: 232.894438  magneticMoment: [ Abs: 0.62658  Tot: -0.49011 ]
	SubspaceRotationAdjust: set factor to 0.951
ElecMinimize: Iter:   5  G: -371.472851985061482  |grad|_K:  6.347e-06  alpha:  6.410e-02  linmin:  4.380e-06  t[s]:  19920.19
	Linear fluid (dielectric constant: 78.4, screening length: 8.12261 Bohr) occupying 0.709061 of unit cell:	Completed after 10 iterations at t[s]:  19982.72
	Linear fluid (dielectric constant: 78.4, screening length: 8.12261 Bohr) occupying 0.709173 of unit cell:	Completed after 6 iterations at t[s]:  20034.08
	FillingsUpdate:  mu: -0.145500000  nElectrons: 232.894612  magneticMoment: [ Abs: 0.63758  Tot: -0.50176 ]
	SubspaceRotationAdjust: set factor to 0.531
	SubspaceRotationAdjust: resetting CG because factor has changed by 0.126079
	Linear fluid (dielectric constant: 78.4, screening length: 8.12261 Bohr) occupying 0.709173 of unit cell:	Completed after 0 iterations at t[s]:  20126.71
ElecMinimize: 	State modified externally: resetting search direction.
ElecMinimize: Iter:   6  G: -371.473526231896699  |grad|_K:  4.047e-06  alpha:  7.689e-02
	Linear fluid (dielectric constant: 78.4, screening length: 8.12261 Bohr) occupying 0.709377 of unit cell:	Completed after 15 iterations at t[s]:  20257.34
	Linear fluid (dielectric constant: 78.4, screening length: 8.12261 Bohr) occupying 0.709358 of unit cell:	Completed after 7 iterations at t[s]:  20309.13
	FillingsUpdate:  mu: -0.145500000  nElectrons: 232.937839  magneticMoment: [ Abs: 0.67158  Tot: -0.53676 ]
	SubspaceRotationAdjust: set factor to 0.263
ElecMinimize: Iter:   7  G: -371.473773680242857  |grad|_K:  2.366e-06  alpha:  6.954e-02  linmin: -1.783e-04  t[s]:  20374.09
	Linear fluid (dielectric constant: 78.4, screening length: 8.12261 Bohr) occupying 0.709359 of unit cell:	Completed after 8 iterations at t[s]:  20435.97
ElecMinimize: 	Predicted alpha/alphaT>3.000000, increasing alphaT to 2.086125e-01.
	Linear fluid (dielectric constant: 78.4, screening length: 8.12261 Bohr) occupying 0.709361 of unit cell:	Completed after 10 iterations at t[s]:  20491.07
ElecMinimize: 	Predicted alpha/alphaT>3.000000, increasing alphaT to 6.258375e-01.
	Linear fluid (dielectric constant: 78.4, screening length: 8.12261 Bohr) occupying 0.709364 of unit cell:	Completed after 13 iterations at t[s]:  20548.69
	Linear fluid (dielectric constant: 78.4, screening length: 8.12261 Bohr) occupying 0.709364 of unit cell:	Completed after 8 iterations at t[s]:  20602.12
	FillingsUpdate:  mu: -0.145500000  nElectrons: 232.972444  magneticMoment: [ Abs: 0.66835  Tot: -0.53837 ]
	SubspaceRotationAdjust: set factor to 0.275
ElecMinimize: Iter:   8  G: -371.474655127703386  |grad|_K:  1.270e-06  alpha:  7.115e-01  linmin: -1.069e-04  t[s]:  20666.65
	Linear fluid (dielectric constant: 78.4, screening length: 8.12261 Bohr) occupying 0.709451 of unit cell:	Completed after 9 iterations at t[s]:  20728.46
	Linear fluid (dielectric constant: 78.4, screening length: 8.12261 Bohr) occupying 0.709449 of unit cell:	Completed after 2 iterations at t[s]:  20776.61
	FillingsUpdate:  mu: -0.145500000  nElectrons: 232.980704  magneticMoment: [ Abs: 0.67184  Tot: -0.54372 ]
	SubspaceRotationAdjust: set factor to 0.297
ElecMinimize: Iter:   9  G: -371.474906508163485  |grad|_K:  7.196e-07  alpha:  6.987e-01  linmin:  5.527e-06  t[s]:  20841.27
	Linear fluid (dielectric constant: 78.4, screening length: 8.12261 Bohr) occupying 0.709513 of unit cell:	Completed after 8 iterations at t[s]:  20902.29
	Linear fluid (dielectric constant: 78.4, screening length: 8.12261 Bohr) occupying 0.709507 of unit cell:	Completed after 2 iterations at t[s]:  20950.59
	FillingsUpdate:  mu: -0.145500000  nElectrons: 232.981223  magneticMoment: [ Abs: 0.67464  Tot: -0.54498 ]
	SubspaceRotationAdjust: set factor to 0.262
ElecMinimize: Iter:  10  G: -371.474978227978795  |grad|_K:  6.294e-07  alpha:  6.362e-01  linmin:  1.126e-05  t[s]:  21017.45
	Linear fluid (dielectric constant: 78.4, screening length: 8.12261 Bohr) occupying 0.709383 of unit cell:	Completed after 13 iterations at t[s]:  21082.73
	Linear fluid (dielectric constant: 78.4, screening length: 8.12261 Bohr) occupying 0.709476 of unit cell:	Completed after 13 iterations at t[s]:  21139.44
	FillingsUpdate:  mu: -0.145500000  nElectrons: 232.971824  magneticMoment: [ Abs: 0.66697  Tot: -0.53618 ]
	SubspaceRotationAdjust: set factor to 0.162
ElecMinimize: Iter:  11  G: -371.474992530004215  |grad|_K:  4.079e-07  alpha:  1.628e-01  linmin: -7.523e-05  t[s]:  21203.72
	Linear fluid (dielectric constant: 78.4, screening length: 8.12261 Bohr) occupying 0.709480 of unit cell:	Completed after 3 iterations at t[s]:  21260.72
	Linear fluid (dielectric constant: 78.4, screening length: 8.12261 Bohr) occupying 0.709485 of unit cell:	Completed after 3 iterations at t[s]:  21310.10
	FillingsUpdate:  mu: -0.145500000  nElectrons: 232.970139  magneticMoment: [ Abs: 0.66767  Tot: -0.53565 ]
	SubspaceRotationAdjust: set factor to 0.205
ElecMinimize: Iter:  12  G: -371.475008715135687  |grad|_K:  2.867e-07  alpha:  4.384e-01  linmin: -4.003e-06  t[s]:  21374.28
	Linear fluid (dielectric constant: 78.4, screening length: 8.12261 Bohr) occupying 0.709492 of unit cell:	Completed after 4 iterations at t[s]:  21432.61
	Linear fluid (dielectric constant: 78.4, screening length: 8.12261 Bohr) occupying 0.709493 of unit cell:	Completed after 1 iterations at t[s]:  21479.82
	FillingsUpdate:  mu: -0.145500000  nElectrons: 232.970004  magneticMoment: [ Abs: 0.66921  Tot: -0.53646 ]
	SubspaceRotationAdjust: set factor to 0.175
ElecMinimize: Iter:  13  G: -371.475017475246432  |grad|_K:  2.183e-07  alpha:  4.880e-01  linmin: -9.028e-05  t[s]:  21544.31
	Linear fluid (dielectric constant: 78.4, screening length: 8.12261 Bohr) occupying 0.709462 of unit cell:	Completed after 7 iterations at t[s]:  21605.17
	Linear fluid (dielectric constant: 78.4, screening length: 8.12261 Bohr) occupying 0.709478 of unit cell:	Completed after 4 iterations at t[s]:  21655.15
	FillingsUpdate:  mu: -0.145500000  nElectrons: 232.966065  magneticMoment: [ Abs: 0.66619  Tot: -0.53298 ]
	SubspaceRotationAdjust: set factor to 0.113
ElecMinimize: Iter:  14  G: -371.475020063397949  |grad|_K:  1.454e-07  alpha:  2.377e-01  linmin:  7.862e-05  t[s]:  21719.44
	Linear fluid (dielectric constant: 78.4, screening length: 8.12261 Bohr) occupying 0.709479 of unit cell:	Completed after 2 iterations at t[s]:  21776.09
	Linear fluid (dielectric constant: 78.4, screening length: 8.12261 Bohr) occupying 0.709481 of unit cell:	Completed after 2 iterations at t[s]:  21823.68
	FillingsUpdate:  mu: -0.145500000  nElectrons: 232.965337  magneticMoment: [ Abs: 0.66628  Tot: -0.53277 ]
	SubspaceRotationAdjust: set factor to 0.161
ElecMinimize: Iter:  15  G: -371.475022735735934  |grad|_K:  9.405e-08  alpha:  5.657e-01  linmin: -2.084e-04  t[s]:  21887.59
	Linear fluid (dielectric constant: 78.4, screening length: 8.12261 Bohr) occupying 0.709491 of unit cell:	Completed after 2 iterations at t[s]:  21943.81
	Linear fluid (dielectric constant: 78.4, screening length: 8.12261 Bohr) occupying 0.709490 of unit cell:	Completed after 0 iterations at t[s]:  21989.94
	FillingsUpdate:  mu: -0.145500000  nElectrons: 232.966167  magneticMoment: [ Abs: 0.66734  Tot: -0.53380 ]
	SubspaceRotationAdjust: set factor to 0.14
ElecMinimize: Iter:  16  G: -371.475023741613199  |grad|_K:  8.218e-08  alpha:  4.943e-01  linmin:  1.240e-04  t[s]:  22053.66
	Linear fluid (dielectric constant: 78.4, screening length: 8.12261 Bohr) occupying 0.709487 of unit cell:	Completed after 3 iterations at t[s]:  22110.27
	Linear fluid (dielectric constant: 78.4, screening length: 8.12261 Bohr) occupying 0.709488 of unit cell:	Completed after 1 iterations at t[s]:  22156.93
	FillingsUpdate:  mu: -0.145500000  nElectrons: 232.965260  magneticMoment: [ Abs: 0.66668  Tot: -0.53301 ]
	SubspaceRotationAdjust: set factor to 0.102
ElecMinimize: Iter:  17  G: -371.475024175948192  |grad|_K:  6.322e-08  alpha:  3.177e-01  linmin:  6.133e-05  t[s]:  22221.10
	Linear fluid (dielectric constant: 78.4, screening length: 8.12261 Bohr) occupying 0.709491 of unit cell:	Completed after 1 iterations at t[s]:  22276.59
	Linear fluid (dielectric constant: 78.4, screening length: 8.12261 Bohr) occupying 0.709492 of unit cell:	Completed after 0 iterations at t[s]:  22322.69
	FillingsUpdate:  mu: -0.145500000  nElectrons: 232.965631  magneticMoment: [ Abs: 0.66720  Tot: -0.53347 ]
	SubspaceRotationAdjust: set factor to 0.156
ElecMinimize: Iter:  18  G: -371.475024581845332  |grad|_K:  3.634e-08  alpha:  4.647e-01  linmin: -2.983e-04  t[s]:  22388.15
	Linear fluid (dielectric constant: 78.4, screening length: 8.12261 Bohr) occupying 0.709496 of unit cell:	Completed after 2 iterations at t[s]:  22444.36
	Linear fluid (dielectric constant: 78.4, screening length: 8.12261 Bohr) occupying 0.709494 of unit cell:	Completed after 0 iterations at t[s]:  22489.69
	FillingsUpdate:  mu: -0.145500000  nElectrons: 232.966026  magneticMoment: [ Abs: 0.66762  Tot: -0.53388 ]
	SubspaceRotationAdjust: set factor to 0.128
ElecMinimize: Iter:  19  G: -371.475024665877527  |grad|_K:  5.219e-08  alpha:  3.078e-01  linmin:  9.782e-05  t[s]:  22553.93
	Linear fluid (dielectric constant: 78.4, screening length: 8.12261 Bohr) occupying 0.709495 of unit cell:	Completed after 1 iterations at t[s]:  22609.52
	Linear fluid (dielectric constant: 78.4, screening length: 8.12261 Bohr) occupying 0.709495 of unit cell:	Completed after 0 iterations at t[s]:  22654.79
	FillingsUpdate:  mu: -0.145500000  nElectrons: 232.965925  magneticMoment: [ Abs: 0.66762  Tot: -0.53381 ]
	SubspaceRotationAdjust: set factor to 0.21
ElecMinimize: Iter:  20  G: -371.475024796043385  |grad|_K:  3.427e-08  alpha:  2.436e-01  linmin: -9.474e-05  t[s]:  22718.92
	Linear fluid (dielectric constant: 78.4, screening length: 8.12261 Bohr) occupying 0.709494 of unit cell:	Completed after 1 iterations at t[s]:  22774.44
	Linear fluid (dielectric constant: 78.4, screening length: 8.12261 Bohr) occupying 0.709494 of unit cell:	Completed after 0 iterations at t[s]:  22819.73
	FillingsUpdate:  mu: -0.145500000  nElectrons: 232.965704  magneticMoment: [ Abs: 0.66744  Tot: -0.53359 ]
	SubspaceRotationAdjust: set factor to 0.184
ElecMinimize: Iter:  21  G: -371.475024837709839  |grad|_K:  2.684e-08  alpha:  1.780e-01  linmin: -6.170e-05  t[s]:  22884.00
	Linear fluid (dielectric constant: 78.4, screening length: 8.12261 Bohr) occupying 0.709495 of unit cell:	Completed after 0 iterations at t[s]:  22937.96
	Linear fluid (dielectric constant: 78.4, screening length: 8.12261 Bohr) occupying 0.709496 of unit cell:	Completed after 0 iterations at t[s]:  22983.38
	FillingsUpdate:  mu: -0.145500000  nElectrons: 232.966077  magneticMoment: [ Abs: 0.66785  Tot: -0.53395 ]
	SubspaceRotationAdjust: set factor to 0.218
ElecMinimize: Iter:  22  G: -371.475024924503600  |grad|_K:  2.622e-08  alpha:  5.207e-01  linmin: -1.378e-05  t[s]:  23047.49
ElecMinimize: Converged (|Delta G|<1.000000e-07 for 2 iters).
Setting wave functions to eigenvectors of Hamiltonian
Converging empty states (this may take a while): |deigs|: 6.259e-04
Single-point solvation energy estimate, DeltaG = -0.013567241424539

Computing DFT-D3 correction:
# coordination-number C 3.301 3.323 3.336 3.332 3.313 3.291 3.322 3.534 3.329 3.313 3.303 3.341 3.301 3.301 3.323 3.747 3.270 3.303 3.320 3.334 3.326 3.306 3.302 3.331 3.336 3.320 3.301 3.270 3.530 3.323 3.303 3.306 3.317 3.301 3.313 3.327 3.743 3.334 3.292 3.314 3.333 3.333 3.322 3.303 2.989
# coordination-number N 3.171 3.185 3.176 3.186
# coordination-number Ti 6.852
# coordination-number O 2.019 1.171 2.014
# coordination-number H 1.025 0.992 0.993
# diagonal-C6 C 24.27 24.05 23.90 23.95 24.16 24.36 24.06 21.15 23.98 24.15 24.25 23.85 24.27 24.27 24.05 19.00 24.55 24.26 24.08 23.93 24.02 24.23 24.26 23.97 23.91 24.08 24.27 24.55 21.20 24.06 24.26 24.22 24.11 24.27 24.15 24.00 19.02 23.93 24.36 24.14 23.94 23.94 24.06 24.25 25.69
# diagonal-C6 N 15.60 15.60 15.60 15.60
# diagonal-C6 Ti 321.59
# diagonal-C6 O 10.40 12.64 10.41
# diagonal-C6 H 3.08 3.09 3.09
[...]
disp Ti   0.000000000000000   0.000000000000000   0.000000000000000
disp O  -0.000063181635250   0.000075721604173   0.000034438029240
disp O   0.000015920409209  -0.000035606257225   0.000002478593940
disp O   0.000934116868972  -0.000849459569076  -0.001213817145873
disp H   0.000285340682905  -0.000188896254036  -0.000641286260361
disp H  -0.013404380871208   0.001468439056356   0.007625043824640
disp H   0.002872504670972   0.012635922111929   0.009322228725197

Real mode 14:
Frequency: 0.007233 Eh [ 1587 cm^-1 ]
Degeneracy: 1 of 1
IR intensity: 14.9546 e^2/amu [ 14578.9 km/mol ]
Displacements:
disp C   0.000000000000000   0.000000000000000   0.000000000000000
disp C   0.000000000000000   0.000000000000000   0.000000000000000
disp C   0.000000000000000   0.000000000000000   0.000000000000000
disp C   0.000000000000000   0.000000000000000   0.000000000000000
disp C   0.000000000000000   0.000000000000000   0.000000000000000
disp C   0.000000000000000   0.000000000000000   0.000000000000000
disp C   0.000000000000000   0.000000000000000   0.000000000000000
disp C   0.000000000000000   0.000000000000000   0.000000000000000
disp C   0.000000000000000   0.000000000000000   0.000000000000000
disp C   0.000000000000000   0.000000000000000   0.000000000000000
disp C   0.000000000000000   0.000000000000000   0.000000000000000
disp C   0.000000000000000   0.000000000000000   0.000000000000000
disp C   0.000000000000000   0.000000000000000   0.000000000000000
disp C   0.000000000000000   0.000000000000000   0.000000000000000
disp C   0.000000000000000   0.000000000000000   0.000000000000000
disp C   0.000000000000000   0.000000000000000   0.000000000000000
disp C   0.000000000000000   0.000000000000000   0.000000000000000
disp C   0.000000000000000   0.000000000000000   0.000000000000000
disp C   0.000000000000000   0.000000000000000   0.000000000000000
disp C   0.000000000000000   0.000000000000000   0.000000000000000
disp C   0.000000000000000   0.000000000000000   0.000000000000000
disp C   0.000000000000000   0.000000000000000   0.000000000000000
disp C   0.000000000000000   0.000000000000000   0.000000000000000
disp C   0.000000000000000   0.000000000000000   0.000000000000000
disp C   0.000000000000000   0.000000000000000   0.000000000000000
disp C   0.000000000000000   0.000000000000000   0.000000000000000
disp C   0.000000000000000   0.000000000000000   0.000000000000000
disp C   0.000000000000000   0.000000000000000   0.000000000000000
disp C   0.000000000000000   0.000000000000000   0.000000000000000
disp C   0.000000000000000   0.000000000000000   0.000000000000000
disp C   0.000000000000000   0.000000000000000   0.000000000000000
disp C   0.000000000000000   0.000000000000000   0.000000000000000
disp C   0.000000000000000   0.000000000000000   0.000000000000000
disp C   0.000000000000000   0.000000000000000   0.000000000000000
disp C   0.000000000000000   0.000000000000000   0.000000000000000
disp C   0.000000000000000   0.000000000000000   0.000000000000000
disp C   0.000000000000000   0.000000000000000   0.000000000000000
disp C   0.000000000000000   0.000000000000000   0.000000000000000
disp C   0.000000000000000   0.000000000000000   0.000000000000000
disp C   0.000000000000000   0.000000000000000   0.000000000000000
disp C   0.000000000000000   0.000000000000000   0.000000000000000
disp C   0.000000000000000   0.000000000000000   0.000000000000000
disp C   0.000000000000000   0.000000000000000   0.000000000000000
disp C   0.000000000000000   0.000000000000000   0.000000000000000
disp C  -0.000886832654715   0.004534806277704  -0.002038893031882
disp N   0.000000000000000   0.000000000000000   0.000000000000000
disp N   0.000000000000000   0.000000000000000   0.000000000000000
disp N   0.000000000000000   0.000000000000000   0.000000000000000
disp N   0.000000000000000   0.000000000000000   0.000000000000000
disp Ti   0.000000000000000   0.000000000000000   0.000000000000000
disp O   0.000047344159713  -0.000020791019118   0.000486010941831
disp O   0.000746220543572  -0.003466411474822   0.001246299243810
disp O  -0.000016181805045   0.000045997653950   0.000067043884596
disp H   0.000075325856163  -0.001358510792004  -0.003199270738316
disp H   0.000092233771857   0.000032425850814  -0.000008094342182
disp H  -0.000026782960775  -0.000241532034366  -0.000099756305754

Real mode 15:
Frequency: 0.015601 Eh [ 3424 cm^-1 ]
Degeneracy: 1 of 1
IR intensity: 4.5819 e^2/amu [ 4466.8 km/mol ]
Displacements:
disp C   0.000000000000000   0.000000000000000   0.000000000000000
disp C   0.000000000000000   0.000000000000000   0.000000000000000
disp C   0.000000000000000   0.000000000000000   0.000000000000000
disp C   0.000000000000000   0.000000000000000   0.000000000000000
disp C   0.000000000000000   0.000000000000000   0.000000000000000
disp C   0.000000000000000   0.000000000000000   0.000000000000000
disp C   0.000000000000000   0.000000000000000   0.000000000000000
disp C   0.000000000000000   0.000000000000000   0.000000000000000
disp C   0.000000000000000   0.000000000000000   0.000000000000000
disp C   0.000000000000000   0.000000000000000   0.000000000000000
disp C   0.000000000000000   0.000000000000000   0.000000000000000
disp C   0.000000000000000   0.000000000000000   0.000000000000000
disp C   0.000000000000000   0.000000000000000   0.000000000000000
disp C   0.000000000000000   0.000000000000000   0.000000000000000
disp C   0.000000000000000   0.000000000000000   0.000000000000000
disp C   0.000000000000000   0.000000000000000   0.000000000000000
disp C   0.000000000000000   0.000000000000000   0.000000000000000
disp C   0.000000000000000   0.000000000000000   0.000000000000000
disp C   0.000000000000000   0.000000000000000   0.000000000000000
disp C   0.000000000000000   0.000000000000000   0.000000000000000
disp C   0.000000000000000   0.000000000000000   0.000000000000000
disp C   0.000000000000000   0.000000000000000   0.000000000000000
disp C   0.000000000000000   0.000000000000000   0.000000000000000
disp C   0.000000000000000   0.000000000000000   0.000000000000000
disp C   0.000000000000000   0.000000000000000   0.000000000000000
disp C   0.000000000000000   0.000000000000000   0.000000000000000
disp C   0.000000000000000   0.000000000000000   0.000000000000000
disp C   0.000000000000000   0.000000000000000   0.000000000000000
disp C   0.000000000000000   0.000000000000000   0.000000000000000
disp C   0.000000000000000   0.000000000000000   0.000000000000000
disp C   0.000000000000000   0.000000000000000   0.000000000000000
disp C   0.000000000000000   0.000000000000000   0.000000000000000
disp C   0.000000000000000   0.000000000000000   0.000000000000000
disp C   0.000000000000000   0.000000000000000   0.000000000000000
disp C   0.000000000000000   0.000000000000000   0.000000000000000
disp C   0.000000000000000   0.000000000000000   0.000000000000000
disp C   0.000000000000000   0.000000000000000   0.000000000000000
disp C   0.000000000000000   0.000000000000000   0.000000000000000
disp C   0.000000000000000   0.000000000000000   0.000000000000000
disp C   0.000000000000000   0.000000000000000   0.000000000000000
disp C   0.000000000000000   0.000000000000000   0.000000000000000
disp C   0.000000000000000   0.000000000000000   0.000000000000000
disp C   0.000000000000000   0.000000000000000   0.000000000000000
disp C   0.000000000000000   0.000000000000000   0.000000000000000
disp C   0.000027379030514  -0.000096201893333  -0.000079560118923
disp N   0.000000000000000   0.000000000000000   0.000000000000000
disp N   0.000000000000000   0.000000000000000   0.000000000000000
disp N   0.000000000000000   0.000000000000000   0.000000000000000
disp N   0.000000000000000   0.000000000000000   0.000000000000000
disp Ti   0.000000000000000   0.000000000000000   0.000000000000000
disp O   0.000474686880872  -0.001317825864830   0.000641783713830
disp O  -0.000017732068843   0.000077139155457  -0.000013850697409
disp O   0.000013704227675   0.000009265368812  -0.000081666175833
disp H  -0.007269796606433   0.019157711383840  -0.009099940751007
disp H   0.000481234214366   0.001107394962123   0.000656432724795
disp H  -0.001154620961821  -0.000121423615443   0.000506217211412

Real mode 16:
Frequency: 0.017193 Eh [ 3773 cm^-1 ]
Degeneracy: 1 of 1
IR intensity: 1.4466 e^2/amu [ 1410.3 km/mol ]
Displacements:
disp C   0.000000000000000   0.000000000000000   0.000000000000000
disp C   0.000000000000000   0.000000000000000   0.000000000000000
disp C   0.000000000000000   0.000000000000000   0.000000000000000
disp C   0.000000000000000   0.000000000000000   0.000000000000000
disp C   0.000000000000000   0.000000000000000   0.000000000000000
disp C   0.000000000000000   0.000000000000000   0.000000000000000
disp C   0.000000000000000   0.000000000000000   0.000000000000000
disp C   0.000000000000000   0.000000000000000   0.000000000000000
disp C   0.000000000000000   0.000000000000000   0.000000000000000
disp C   0.000000000000000   0.000000000000000   0.000000000000000
disp C   0.000000000000000   0.000000000000000   0.000000000000000
disp C   0.000000000000000   0.000000000000000   0.000000000000000
disp C   0.000000000000000   0.000000000000000   0.000000000000000
disp C   0.000000000000000   0.000000000000000   0.000000000000000
disp C   0.000000000000000   0.000000000000000   0.000000000000000
disp C   0.000000000000000   0.000000000000000   0.000000000000000
disp C   0.000000000000000   0.000000000000000   0.000000000000000
disp C   0.000000000000000   0.000000000000000   0.000000000000000
disp C   0.000000000000000   0.000000000000000   0.000000000000000
disp C   0.000000000000000   0.000000000000000   0.000000000000000
disp C   0.000000000000000   0.000000000000000   0.000000000000000
disp C   0.000000000000000   0.000000000000000   0.000000000000000
disp C   0.000000000000000   0.000000000000000   0.000000000000000
disp C   0.000000000000000   0.000000000000000   0.000000000000000
disp C   0.000000000000000   0.000000000000000   0.000000000000000
disp C   0.000000000000000   0.000000000000000   0.000000000000000
disp C   0.000000000000000   0.000000000000000   0.000000000000000
disp C   0.000000000000000   0.000000000000000   0.000000000000000
disp C   0.000000000000000   0.000000000000000   0.000000000000000
disp C   0.000000000000000   0.000000000000000   0.000000000000000
disp C   0.000000000000000   0.000000000000000   0.000000000000000
disp C   0.000000000000000   0.000000000000000   0.000000000000000
disp C   0.000000000000000   0.000000000000000   0.000000000000000
disp C   0.000000000000000   0.000000000000000   0.000000000000000
disp C   0.000000000000000   0.000000000000000   0.000000000000000
disp C   0.000000000000000   0.000000000000000   0.000000000000000
disp C   0.000000000000000   0.000000000000000   0.000000000000000
disp C   0.000000000000000   0.000000000000000   0.000000000000000
disp C   0.000000000000000   0.000000000000000   0.000000000000000
disp C   0.000000000000000   0.000000000000000   0.000000000000000
disp C   0.000000000000000   0.000000000000000   0.000000000000000
disp C   0.000000000000000   0.000000000000000   0.000000000000000
disp C   0.000000000000000   0.000000000000000   0.000000000000000
disp C   0.000000000000000   0.000000000000000   0.000000000000000
disp C   0.000001479962291  -0.000009654221708  -0.000007189867618
disp N   0.000000000000000   0.000000000000000   0.000000000000000
disp N   0.000000000000000   0.000000000000000   0.000000000000000
disp N   0.000000000000000   0.000000000000000   0.000000000000000
disp N   0.000000000000000   0.000000000000000   0.000000000000000
disp Ti   0.000000000000000   0.000000000000000   0.000000000000000
disp O   0.000034737436549  -0.000104529210381   0.000029411695146
disp O  -0.000003477297718  -0.000003387079627  -0.000004498820760
disp O  -0.000032223145707   0.000914487616594   0.000857103847632
disp H  -0.000658398462864   0.001466495984466  -0.000619631299253
disp H  -0.008566697676723  -0.015775471735534  -0.010114262769689
disp H   0.008876505974854   0.001547200828623  -0.003223540082507

Real mode 17:
Frequency: 0.017515 Eh [ 3844 cm^-1 ]
Degeneracy: 1 of 1
IR intensity: 6.5110 e^2/amu [ 6347.4 km/mol ]
Displacements:
disp C   0.000000000000000   0.000000000000000   0.000000000000000
disp C   0.000000000000000   0.000000000000000   0.000000000000000
disp C   0.000000000000000   0.000000000000000   0.000000000000000
disp C   0.000000000000000   0.000000000000000   0.000000000000000
disp C   0.000000000000000   0.000000000000000   0.000000000000000
disp C   0.000000000000000   0.000000000000000   0.000000000000000
disp C   0.000000000000000   0.000000000000000   0.000000000000000
disp C   0.000000000000000   0.000000000000000   0.000000000000000
disp C   0.000000000000000   0.000000000000000   0.000000000000000
disp C   0.000000000000000   0.000000000000000   0.000000000000000
disp C   0.000000000000000   0.000000000000000   0.000000000000000
disp C   0.000000000000000   0.000000000000000   0.000000000000000
disp C   0.000000000000000   0.000000000000000   0.000000000000000
disp C   0.000000000000000   0.000000000000000   0.000000000000000
disp C   0.000000000000000   0.000000000000000   0.000000000000000
disp C   0.000000000000000   0.000000000000000   0.000000000000000
disp C   0.000000000000000   0.000000000000000   0.000000000000000
disp C   0.000000000000000   0.000000000000000   0.000000000000000
disp C   0.000000000000000   0.000000000000000   0.000000000000000
disp C   0.000000000000000   0.000000000000000   0.000000000000000
disp C   0.000000000000000   0.000000000000000   0.000000000000000
disp C   0.000000000000000   0.000000000000000   0.000000000000000
disp C   0.000000000000000   0.000000000000000   0.000000000000000
disp C   0.000000000000000   0.000000000000000   0.000000000000000
disp C   0.000000000000000   0.000000000000000   0.000000000000000
disp C   0.000000000000000   0.000000000000000   0.000000000000000
disp C   0.000000000000000   0.000000000000000   0.000000000000000
disp C   0.000000000000000   0.000000000000000   0.000000000000000
disp C   0.000000000000000   0.000000000000000   0.000000000000000
disp C   0.000000000000000   0.000000000000000   0.000000000000000
disp C   0.000000000000000   0.000000000000000   0.000000000000000
disp C   0.000000000000000   0.000000000000000   0.000000000000000
disp C   0.000000000000000   0.000000000000000   0.000000000000000
disp C   0.000000000000000   0.000000000000000   0.000000000000000
disp C   0.000000000000000   0.000000000000000   0.000000000000000
disp C   0.000000000000000   0.000000000000000   0.000000000000000
disp C   0.000000000000000   0.000000000000000   0.000000000000000
disp C   0.000000000000000   0.000000000000000   0.000000000000000
disp C   0.000000000000000   0.000000000000000   0.000000000000000
disp C   0.000000000000000   0.000000000000000   0.000000000000000
disp C   0.000000000000000   0.000000000000000   0.000000000000000
disp C   0.000000000000000   0.000000000000000   0.000000000000000
disp C   0.000000000000000   0.000000000000000   0.000000000000000
disp C   0.000000000000000   0.000000000000000   0.000000000000000
disp C   0.000006344770624   0.000000578009686  -0.000004089842666
disp N   0.000000000000000   0.000000000000000   0.000000000000000
disp N   0.000000000000000   0.000000000000000   0.000000000000000
disp N   0.000000000000000   0.000000000000000   0.000000000000000
disp N   0.000000000000000   0.000000000000000   0.000000000000000
disp Ti   0.000000000000000   0.000000000000000   0.000000000000000
disp O  -0.000004189582063   0.000023413919021  -0.000005486966290
disp O   0.000002324909421  -0.000002670175102   0.000007598549919
disp O   0.001368417733422   0.000641951647427  -0.000184790335405
disp H   0.000237690120961  -0.000489546472504   0.000239850634525
disp H  -0.003417524835887  -0.007127461551117  -0.004868945454499
disp H  -0.018828869478357  -0.002503601304780   0.007752741897028

Vibrational free energy components at T = 298 K:
	ZPE:          0.045834
	Evib:         0.049741
	TSvib:        0.007065
	Avib:         0.042676


Dumping 'jdft.n_up' ... done
Dumping 'jdft.n_dn' ... done
Dumping 'jdft.tau_up' ... done
Dumping 'jdft.tau_dn' ... done
Dumping 'jdft.eigenvals' ... done
Dumping 'jdft.eigStats' ... 
	eMin: -2.278099 at state 9 ( [ +0.000000 +0.000000 +0.000000 ] spin -1 )
	HOMO: -0.146364 at state 15 ( [ -0.333333 +0.000000 +0.000000 ] spin -1 )
	mu  : -0.145500
	LUMO: -0.144884 at state 11 ( [ +0.000000 -0.333333 +0.000000 ] spin -1 )
	eMax: +0.019102 at state 0 ( [ +0.000000 +0.000000 +0.000000 ] spin 1 )
	HOMO-LUMO gap: +0.001481
	Optical gap  : +0.011742 at state 13 ( [ +0.333333 +0.333333 +0.000000 ] spin -1 )
Dumping 'jdft.kPts' ... done
Dumping 'jdft.dosUp' ... done.
Dumping 'jdft.dosDn' ... done.
End date and time: Mon Nov 21 15:19:48 2022  (Duration: 0-17:55:28.65)
Done!

PROFILER:             augmentDensityGrid     0.810363 +/-     0.957617 s, 3620 calls,   2933.512805 s total
PROFILER:         augmentDensityGridGrad     0.577528 +/-     0.677245 s, 1960 calls,   1131.955655 s total
PROFILER:        augmentDensitySpherical     0.000570 +/-     0.000801 s, 3620 calls,      2.063206 s total
PROFILER:    augmentDensitySphericalGrad     0.000662 +/-     0.001431 s, 2445 calls,      1.619231 s total
PROFILER:                 augmentOverlap     1.806307 +/-     2.576266 s, 7520 calls,  13583.431490 s total
PROFILER:        ColumnBundle::randomize     0.006581 +/-     0.000000 s,    1 calls,      0.006581 s total
PROFILER:                     diagouterI    19.574342 +/-     2.993536 s,  727 calls,  14230.546331 s total
PROFILER:              EdensityAndVscloc     7.936460 +/-     5.473324 s,  725 calls,   5753.933565 s total
PROFILER:                     EnlAndGrad     0.002030 +/-     0.003068 s, 3915 calls,      7.945534 s total
PROFILER:            ExCorrCommunication     0.072508 +/-     0.073111 s, 4594 calls,    333.099511 s total
PROFILER:               ExCorrFunctional     0.031533 +/-     0.005835 s,  792 calls,     24.974311 s total
PROFILER:                    ExCorrTotal     0.759025 +/-     0.154300 s,  792 calls,    601.147744 s total
PROFILER:                   Idag_DiagV_I    34.998584 +/-    11.618000 s,  467 calls,  16344.338867 s total
PROFILER:                    initWeights     2.417258 +/-     0.000000 s,    1 calls,      2.417258 s total
PROFILER:                    inv(matrix)     0.003085 +/-     0.003221 s,  661 calls,      2.039412 s total
PROFILER:            matrix::diagonalize     0.012048 +/-     0.007298 s, 1164 calls,     14.023736 s total
PROFILER:                    matrix::set     0.000002 +/-     0.000003 s, 71906 calls,      0.178095 s total
PROFILER:            orthoMatrix(matrix)     0.002787 +/-     0.001171 s,  737 calls,      2.054385 s total
PROFILER:     RadialFunctionR::transform     0.016964 +/-     0.159091 s,  151 calls,      2.561567 s total
PROFILER:                    reduceKmesh     0.000000 +/-     0.000000 s,    1 calls,      0.000000 s total
PROFILER:   VanDerWaalsD3::energyAndGrad     0.050435 +/-     0.004299 s,   45 calls,      2.269570 s total
PROFILER:               WavefunctionDrag    36.052015 +/-     0.723826 s,   22 calls,    793.144338 s total
PROFILER:                            Y*M     0.834105 +/-     1.034455 s, 12908 calls,  10766.631976 s total
PROFILER:                          Y1^Y2     0.884769 +/-     1.057943 s, 9584 calls,   8479.628730 s total

MEMUSAGE:                   ColumnBundle     1.365987 GB
MEMUSAGE:        complexScalarFieldTilde     0.074158 GB
MEMUSAGE:                    IndexArrays     0.023178 GB
MEMUSAGE:                         matrix     0.020862 GB
MEMUSAGE:                           misc     0.051230 GB
MEMUSAGE:                    ScalarField     0.395508 GB
MEMUSAGE:               ScalarFieldTilde     0.262436 GB
MEMUSAGE:                          Total     1.683400 GB
