
*************** JDFTx 1.7.0 (git hash 5f12716a) ***************

Start date and time: Wed Nov  9 13:08:52 2022
Executable /home/nisi6161/jdftx_alpine/build/jdftx with command-line: -i in
Running on hosts (process indices):  c3cpu-a2-u1-1.rc.int.colorado.edu (0-17)
Divided in process groups (process indices):  0 (0)  1 (1)  2 (2)  3 (3)  4 (4)  5 (5)  6 (6)  7 (7)  8 (8)  9 (9)  10 (10)  11 (11)  12 (12)  13 (13)  14 (14)  15 (15)  16 (16)  17 (17)
Resource initialization completed at t[s]:      0.07
Run totals: 18 processes, 64 threads, 0 GPUs


Input parsed successfully to the following command list (including defaults):

basis kpoint-dependent
converge-empty-states yes
coords-type Cartesian
core-overlap-check none
coulomb-interaction Periodic
davidson-band-ratio 1.1
density-of-states Etol 1.000000e-06 Esigma 1.000000e-03 \
		Complete \
	Total \
	OrthoOrbital C 1   s \
	OrthoOrbital C 1   p \
	OrthoOrbital C 1   px \
	OrthoOrbital C 1   py \
	OrthoOrbital C 1   pz \
	OrthoOrbital C 2   s \
	OrthoOrbital C 2   p \
	OrthoOrbital C 2   px \
	OrthoOrbital C 2   py \
	OrthoOrbital C 2   pz \
	OrthoOrbital C 3   s \
	OrthoOrbital C 3   p \
	OrthoOrbital C 3   px \
	OrthoOrbital C 3   py \
	OrthoOrbital C 3   pz \
	OrthoOrbital C 4   s \
	OrthoOrbital C 4   p \
	OrthoOrbital C 4   px \
	OrthoOrbital C 4   py \
	OrthoOrbital C 4   pz \
	OrthoOrbital C 5   s \
	OrthoOrbital C 5   p \
	OrthoOrbital C 5   px \
	OrthoOrbital C 5   py \
	OrthoOrbital C 5   pz \
	OrthoOrbital C 6   s \
	OrthoOrbital C 6   p \
	OrthoOrbital C 6   px \
	OrthoOrbital C 6   py \
	OrthoOrbital C 6   pz \
	OrthoOrbital C 7   s \
	OrthoOrbital C 7   p \
	OrthoOrbital C 7   px \
	OrthoOrbital C 7   py \
	OrthoOrbital C 7   pz \
	OrthoOrbital C 8   s \
	OrthoOrbital C 8   p \
	OrthoOrbital C 8   px \
	OrthoOrbital C 8   py \
	OrthoOrbital C 8   pz \
	OrthoOrbital C 9   s \
	OrthoOrbital C 9   p \
	OrthoOrbital C 9   px \
	OrthoOrbital C 9   py \
	OrthoOrbital C 9   pz \
	OrthoOrbital C 10   s \
	OrthoOrbital C 10   p \
	OrthoOrbital C 10   px \
	OrthoOrbital C 10   py \
	OrthoOrbital C 10   pz \
	OrthoOrbital C 11   s \
	OrthoOrbital C 11   p \
	OrthoOrbital C 11   px \
	OrthoOrbital C 11   py \
	OrthoOrbital C 11   pz \
	OrthoOrbital C 12   s \
	OrthoOrbital C 12   p \
	OrthoOrbital C 12   px \
	OrthoOrbital C 12   py \
	OrthoOrbital C 12   pz \
	OrthoOrbital C 13   s \
	OrthoOrbital C 13   p \
	OrthoOrbital C 13   px \
	OrthoOrbital C 13   py \
	OrthoOrbital C 13   pz \
	OrthoOrbital C 14   s \
	OrthoOrbital C 14   p \
	OrthoOrbital C 14   px \
	OrthoOrbital C 14   py \
	OrthoOrbital C 14   pz \
	OrthoOrbital C 15   s \
	OrthoOrbital C 15   p \
	OrthoOrbital C 15   px \
	OrthoOrbital C 15   py \
	OrthoOrbital C 15   pz \
	OrthoOrbital C 16   s \
	OrthoOrbital C 16   p \
	OrthoOrbital C 16   px \
	OrthoOrbital C 16   py \
	OrthoOrbital C 16   pz \
	OrthoOrbital C 17   s \
	OrthoOrbital C 17   p \
	OrthoOrbital C 17   px \
	OrthoOrbital C 17   py \
	OrthoOrbital C 17   pz \
	OrthoOrbital C 18   s \
	OrthoOrbital C 18   p \
	OrthoOrbital C 18   px \
	OrthoOrbital C 18   py \
	OrthoOrbital C 18   pz \
	OrthoOrbital C 19   s \
	OrthoOrbital C 19   p \
	OrthoOrbital C 19   px \
	OrthoOrbital C 19   py \
	OrthoOrbital C 19   pz \
	OrthoOrbital C 20   s \
	OrthoOrbital C 20   p \
	OrthoOrbital C 20   px \
	OrthoOrbital C 20   py \
	OrthoOrbital C 20   pz \
	OrthoOrbital C 21   s \
	OrthoOrbital C 21   p \
	OrthoOrbital C 21   px \
	OrthoOrbital C 21   py \
	OrthoOrbital C 21   pz \
	OrthoOrbital C 22   s \
	OrthoOrbital C 22   p \
	OrthoOrbital C 22   px \
	OrthoOrbital C 22   py \
	OrthoOrbital C 22   pz \
	OrthoOrbital C 23   s \
	OrthoOrbital C 23   p \
	OrthoOrbital C 23   px \
	OrthoOrbital C 23   py \
	OrthoOrbital C 23   pz \
	OrthoOrbital C 24   s \
	OrthoOrbital C 24   p \
	OrthoOrbital C 24   px \
	OrthoOrbital C 24   py \
	OrthoOrbital C 24   pz \
	OrthoOrbital C 25   s \
	OrthoOrbital C 25   p \
	OrthoOrbital C 25   px \
	OrthoOrbital C 25   py \
	OrthoOrbital C 25   pz \
	OrthoOrbital C 26   s \
	OrthoOrbital C 26   p \
	OrthoOrbital C 26   px \
	OrthoOrbital C 26   py \
	OrthoOrbital C 26   pz \
	OrthoOrbital C 27   s \
	OrthoOrbital C 27   p \
	OrthoOrbital C 27   px \
	OrthoOrbital C 27   py \
	OrthoOrbital C 27   pz \
	OrthoOrbital C 28   s \
	OrthoOrbital C 28   p \
	OrthoOrbital C 28   px \
	OrthoOrbital C 28   py \
	OrthoOrbital C 28   pz \
	OrthoOrbital C 29   s \
	OrthoOrbital C 29   p \
	OrthoOrbital C 29   px \
	OrthoOrbital C 29   py \
	OrthoOrbital C 29   pz \
	OrthoOrbital C 30   s \
	OrthoOrbital C 30   p \
	OrthoOrbital C 30   px \
	OrthoOrbital C 30   py \
	OrthoOrbital C 30   pz \
	OrthoOrbital C 31   s \
	OrthoOrbital C 31   p \
	OrthoOrbital C 31   px \
	OrthoOrbital C 31   py \
	OrthoOrbital C 31   pz \
	OrthoOrbital C 32   s \
	OrthoOrbital C 32   p \
	OrthoOrbital C 32   px \
	OrthoOrbital C 32   py \
	OrthoOrbital C 32   pz \
	OrthoOrbital C 33   s \
	OrthoOrbital C 33   p \
	OrthoOrbital C 33   px \
	OrthoOrbital C 33   py \
	OrthoOrbital C 33   pz \
	OrthoOrbital C 34   s \
	OrthoOrbital C 34   p \
	OrthoOrbital C 34   px \
	OrthoOrbital C 34   py \
	OrthoOrbital C 34   pz \
	OrthoOrbital C 35   s \
	OrthoOrbital C 35   p \
	OrthoOrbital C 35   px \
	OrthoOrbital C 35   py \
	OrthoOrbital C 35   pz \
	OrthoOrbital C 36   s \
	OrthoOrbital C 36   p \
	OrthoOrbital C 36   px \
	OrthoOrbital C 36   py \
	OrthoOrbital C 36   pz \
	OrthoOrbital C 37   s \
	OrthoOrbital C 37   p \
	OrthoOrbital C 37   px \
	OrthoOrbital C 37   py \
	OrthoOrbital C 37   pz \
	OrthoOrbital C 38   s \
	OrthoOrbital C 38   p \
	OrthoOrbital C 38   px \
	OrthoOrbital C 38   py \
	OrthoOrbital C 38   pz \
	OrthoOrbital C 39   s \
	OrthoOrbital C 39   p \
	OrthoOrbital C 39   px \
	OrthoOrbital C 39   py \
	OrthoOrbital C 39   pz \
	OrthoOrbital C 40   s \
	OrthoOrbital C 40   p \
	OrthoOrbital C 40   px \
	OrthoOrbital C 40   py \
	OrthoOrbital C 40   pz \
	OrthoOrbital C 41   s \
	OrthoOrbital C 41   p \
	OrthoOrbital C 41   px \
	OrthoOrbital C 41   py \
	OrthoOrbital C 41   pz \
	OrthoOrbital C 42   s \
	OrthoOrbital C 42   p \
	OrthoOrbital C 42   px \
	OrthoOrbital C 42   py \
	OrthoOrbital C 42   pz \
	OrthoOrbital C 43   s \
	OrthoOrbital C 43   p \
	OrthoOrbital C 43   px \
	OrthoOrbital C 43   py \
	OrthoOrbital C 43   pz \
	OrthoOrbital C 44   s \
	OrthoOrbital C 44   p \
	OrthoOrbital C 44   px \
	OrthoOrbital C 44   py \
	OrthoOrbital C 44   pz \
	OrthoOrbital C 45   s \
	OrthoOrbital C 45   p \
	OrthoOrbital C 45   px \
	OrthoOrbital C 45   py \
	OrthoOrbital C 45   pz \
	OrthoOrbital N 1   s \
	OrthoOrbital N 1   p \
	OrthoOrbital N 1   px \
	OrthoOrbital N 1   py \
	OrthoOrbital N 1   pz \
	OrthoOrbital N 2   s \
	OrthoOrbital N 2   p \
	OrthoOrbital N 2   px \
	OrthoOrbital N 2   py \
	OrthoOrbital N 2   pz \
	OrthoOrbital N 3   s \
	OrthoOrbital N 3   p \
	OrthoOrbital N 3   px \
	OrthoOrbital N 3   py \
	OrthoOrbital N 3   pz \
	OrthoOrbital N 4   s \
	OrthoOrbital N 4   p \
	OrthoOrbital N 4   px \
	OrthoOrbital N 4   py \
	OrthoOrbital N 4   pz \
	OrthoOrbital Ti 1   s \
	OrthoOrbital Ti 1   p \
	OrthoOrbital Ti 1   px \
	OrthoOrbital Ti 1   py \
	OrthoOrbital Ti 1   pz \
	OrthoOrbital Ti 1   d \
	OrthoOrbital Ti 1   dxy \
	OrthoOrbital Ti 1   dyz \
	OrthoOrbital Ti 1   dz2 \
	OrthoOrbital Ti 1   dxz \
	OrthoOrbital Ti 1   dx2-y2 \
	OrthoOrbital O 1   s \
	OrthoOrbital O 1   p \
	OrthoOrbital O 1   px \
	OrthoOrbital O 1   py \
	OrthoOrbital O 1   pz \
	OrthoOrbital O 2   s \
	OrthoOrbital O 2   p \
	OrthoOrbital O 2   px \
	OrthoOrbital O 2   py \
	OrthoOrbital O 2   pz \
	OrthoOrbital O 3   s \
	OrthoOrbital O 3   p \
	OrthoOrbital O 3   px \
	OrthoOrbital O 3   py \
	OrthoOrbital O 3   pz \
	OrthoOrbital H 1   s \
	OrthoOrbital H 2   s \
	OrthoOrbital H 3   s
dump End ElecDensity KEdensity BandEigs EigStats RhoAtom DOS Kpoints
dump Ionic State IonicPositions Lattice EigStats Ecomponents
dump 
dump 
dump 
dump 
dump 
dump 
dump 
dump 
dump-name jdft.$VAR
elec-cutoff 20
elec-eigen-algo Davidson
elec-ex-corr gga-PBE
elec-initial-magnetization 0.000000 no
elec-n-bands 140
elec-smearing Fermi 0.001
electronic-minimize  \
	dirUpdateScheme      FletcherReeves \
	linminMethod         DirUpdateRecommended \
	nIterations          100 \
	history              15 \
	knormThreshold       0 \
	energyDiffThreshold  1e-07 \
	nEnergyDiff          2 \
	alphaTstart          1 \
	alphaTmin            1e-10 \
	updateTestStepSize   yes \
	alphaTreduceFactor   0.1 \
	alphaTincreaseFactor 3 \
	nAlphaAdjustMax      3 \
	wolfeEnergy          0.0001 \
	wolfeGradient        0.9 \
	fdTest               no
exchange-regularization WignerSeitzTruncated
fluid LinearPCM 298.000000 1.013250
fluid-anion F- 0.5 MeanFieldLJ \
	epsBulk 1 \
	pMol 0 \
	epsInf 1 \
	Pvap 0 \
	sigmaBulk 0 \
	Rvdw 2.24877 \
	Res 0 \
	tauNuc 343133
fluid-cation Na+ 0.5 MeanFieldLJ \
	epsBulk 1 \
	pMol 0 \
	epsInf 1 \
	Pvap 0 \
	sigmaBulk 0 \
	Rvdw 2.19208 \
	Res 0 \
	tauNuc 343133
fluid-ex-corr lda-TF lda-PZ
fluid-gummel-loop 10 1.000000e-05
fluid-minimize  \
	dirUpdateScheme      PolakRibiere \
	linminMethod         DirUpdateRecommended \
	nIterations          400 \
	history              15 \
	knormThreshold       1e-11 \
	energyDiffThreshold  0 \
	nEnergyDiff          2 \
	alphaTstart          1 \
	alphaTmin            1e-10 \
	updateTestStepSize   yes \
	alphaTreduceFactor   0.1 \
	alphaTincreaseFactor 3 \
	nAlphaAdjustMax      6 \
	wolfeEnergy          0.0001 \
	wolfeGradient        0.9 \
	fdTest               no
fluid-solvent H2O 55.338 ScalarEOS \
	epsBulk 78.4 \
	pMol 0.92466 \
	epsInf 1.77 \
	Pvap 1.06736e-10 \
	sigmaBulk 4.62e-05 \
	Rvdw 2.61727 \
	Res 1.42 \
	tauNuc 343133 \
	poleEl 15 7 1
forces-output-coords Positions
ion C   0.082189000000000   0.002737000000000   0.093520000000000 0
ion C  -2.301676000000000   3.949201000000001   0.100009000000000 0
ion C  -4.649105000000000   7.951695000000000   0.054157000000000 0
ion C  -6.963183000000001  11.968001000000003   0.040574000000000 0
ion C  -9.291834000000003  15.978072000000001   0.079592000000000 0
ion C   4.767255000000000   0.106208000000000   0.114110000000000 0
ion C   2.381676000000000   4.118788000000001   0.196643000000000 0
ion C  -0.027672999999999   7.954865000000001   0.182628000000000 0
ion C  -2.347708000000001  11.961250000000000   0.092569000000000 0
ion C  -4.642831999999999  15.985192000000001   0.067220000000000 0
ion C  -2.276164000000001  19.948133000000002   0.057704000000000 0
ion C   7.171398000000000   4.113926000000000   0.166061000000000 0
ion C   0.049634999999999  15.896762000000004   0.092136000000000 0
ion C   2.430346000000000  19.853887000000004   0.074487000000000 0
ion C  11.845243000000000   3.952621000000000   0.049918000000000 0
ion C   9.556816000000000   7.938681000000001   0.139502000000000 0
ion C   4.753368000000002  15.757266000000001   0.192145000000000 0
ion C   7.082009000000003  19.858716000000005   0.095769000000000 0
ion C  16.489726000000001   3.939049000000000   0.050134000000000 0
ion C  14.180506000000003   7.960925000000001   0.029544000000000 0
ion C  11.855366999999998  11.960843000000002   0.090492000000000 0
ion C   9.451086999999999  15.894783000000002   0.117917000000000 0
ion C   0.072334000000000   2.686738000000001   0.117138000000000 0
ion C  -2.333458000000000   6.622372000000002   0.108141000000000 0
ion C  -4.656523000000001  10.622032000000004   0.052297000000000 0
ion C  -6.965671999999999  14.643310000000001   0.062635000000000 0
ion C  -9.290629000000001  18.665912000000002   0.096375000000000 0
ion C   4.770650000000000   2.825791000000001   0.178476000000000 0
ion C  -0.032844000000001  10.643977000000000   0.165715000000000 0
ion C  -2.321330000000002  14.630177000000003   0.081668000000000 0
ion C  -4.640020000000001  18.670181000000003   0.078337000000000 0
ion C   9.474618000000001   2.684580000000000   0.068691000000000 0
ion C   2.353487000000001  14.469491000000001   0.188900000000000 0
ion C   0.066431999999999  18.574998000000004   0.062462000000000 0
ion C  14.167226000000001   2.597147000000000   0.048663000000000 0
ion C  11.872183000000000   6.621907000000002   0.054287000000000 0
ion C   9.548586000000000  10.627253000000001   0.164850000000000 0
ion C   7.142260000000000  14.464090000000004   0.203780000000000 0
ion C   4.756528999999999  18.476690000000005   0.118176000000000 0
ion C  18.816509000000003   2.604427000000000   0.074790000000000 0
ion C  16.486405000000001   6.614656000000001   0.031577000000000 0
ion C  14.171647000000000  10.631401000000002   0.041613000000000 0
ion C  11.825987000000000  14.633118000000001   0.097716000000000 0
ion C   9.441712999999998  18.579323000000002   0.095121000000000 0
ion C   4.223460000000001  10.009296000000003   5.523182000000002 1
ion N   2.244103000000000  11.885611000000003   0.290466000000000 0
ion N   7.255992999999999  11.860530000000002   0.319448000000000 0
ion N   2.266267999999999   6.721568000000000   0.303746000000000 0
ion N   7.282741000000000   6.696152000000001   0.269617000000000 0
ion Ti   4.758939999999999   9.297821000000003   1.741715000000000 0
ion O   3.461876000000001  10.771153000000000   7.712644000000001 1
ion O   6.091501000000000   8.491692000000002   5.281466000000001 1
ion O  -0.113486999999999  13.784220000000001   6.886751000000001 1
ion H   1.926112999999997  12.046610000000003   7.436063000000002 1
ion H   0.219839999999998  15.486304000000004   7.568081000000001 1
ion H  -1.716444000000000  13.247189000000002   7.670599000000001 1
ion-species /projects/musgravc/apps/jdftx-1.6.0/build/pseudopotentials/GBRV_v1.5/$ID_pbe_v1.uspp
ion-species /projects/musgravc/apps/jdftx-1.6.0/build/pseudopotentials/GBRV_v1.5/$ID_pbe_v1.2.uspp
ion-species /projects/musgravc/apps/jdftx-1.6.0/build/pseudopotentials/GBRV_v1.5/$ID_pbe_v1.4.uspp
ion-species /projects/musgravc/apps/jdftx-1.6.0/build/pseudopotentials/GBRV_v1.5/$ID_pbe_v1.5.uspp
ion-width Ecut
ionic-minimize  \
	dirUpdateScheme      L-BFGS \
	linminMethod         DirUpdateRecommended \
	nIterations          100 \
	history              15 \
	knormThreshold       0.0001 \
	energyDiffThreshold  0.0001 \
	nEnergyDiff          2 \
	alphaTstart          1 \
	alphaTmin            1e-10 \
	updateTestStepSize   yes \
	alphaTreduceFactor   0.1 \
	alphaTincreaseFactor 3 \
	nAlphaAdjustMax      3 \
	wolfeEnergy          0.0001 \
	wolfeGradient        0.9 \
	fdTest               no
kpoint   0.000000000000   0.000000000000   0.000000000000  1.00000000000000
kpoint-folding 3 3 1 
latt-move-scale 0 0 0
latt-scale 1 1 1 
lattice  \
	  23.436261999999999  -11.733459000000000    0.000000000000000  \
	   0.017994000000000   19.941849000000001    0.000000000000000  \
	   0.000000000000000    0.000000000000000   43.256312999999999 
lattice-minimize  \
	dirUpdateScheme      L-BFGS \
	linminMethod         DirUpdateRecommended \
	nIterations          0 \
	history              15 \
	knormThreshold       0 \
	energyDiffThreshold  1e-06 \
	nEnergyDiff          2 \
	alphaTstart          1 \
	alphaTmin            1e-10 \
	updateTestStepSize   yes \
	alphaTreduceFactor   0.1 \
	alphaTincreaseFactor 3 \
	nAlphaAdjustMax      3 \
	wolfeEnergy          0.0001 \
	wolfeGradient        0.9 \
	fdTest               no
lcao-params 30 1e-06 0.001
pcm-variant CANDLE
spintype z-spin
subspace-rotation-factor 1 yes
symmetries none
symmetry-threshold 0.0001
target-mu -0.1455 no

van-der-waals D3
vibrations \
	dr 0.01\
	centralDiff no\
	useConstraints yes\
	translationSym yes\
	rotationSym no\
	omegaMin 0.0002\
	T 298\
	omegaResolution 0.0001


Applied RMS atom displacement 0 bohrs to make symmetries exact.
Applied RMS atom displacement 0 bohrs to make symmetries exact.

---------- Initializing the Grid ----------
R = 
[      23.4363     -11.7335            0  ]
[     0.017994      19.9418            0  ]
[            0            0      43.2563  ]
unit cell volume = 20225.5
G =
[   0.267976   0.157673         -0  ]
[ -0.000241801   0.314933          0  ]
[          0         -0   0.145255  ]
Minimum fftbox size, Smin = [  96  96  176  ]
Chosen fftbox size, S = [  96  96  180  ]

---------- Exchange Correlation functional ----------
Initalized PBE GGA exchange.
Initalized PBE GGA correlation.

---------- Setting up pseudopotentials ----------
Width of ionic core gaussian charges (only for fluid interactions / plotting) set to 0.397384

Reading pseudopotential file '/projects/musgravc/apps/jdftx-1.6.0/build/pseudopotentials/GBRV_v1.5/c_pbe_v1.2.uspp':
  Title: C.  Created by USPP 7.3.6 on 3-2-2014
  Reference state energy: -5.406344.  4 valence electrons in orbitals:
    |200>  occupation: 2  eigenvalue: -0.504890
    |210>  occupation: 2  eigenvalue: -0.194356
  lMax: 1  lLocal: 2  QijEcut: 5
  4 projectors sampled on a log grid with 503 points:
    l: 0  eig: -0.504890  rCut: 1.3
    l: 0  eig: 0.000000  rCut: 1.3
    l: 1  eig: -0.194357  rCut: 1.3
    l: 1  eig: 0.000000  rCut: 1.3
  Partial core density with radius 1.1
  Transforming core density to a uniform radial grid of dG=0.02 with 1464 points.
  Transforming local potential to a uniform radial grid of dG=0.02 with 1464 points.
  Transforming nonlocal projectors to a uniform radial grid of dG=0.02 with 432 points.
  Transforming density augmentations to a uniform radial grid of dG=0.02 with 1464 points.
  Transforming atomic orbitals to a uniform radial grid of dG=0.02 with 432 points.
  Core radius for overlap checks: 1.30 bohrs.

Reading pseudopotential file '/projects/musgravc/apps/jdftx-1.6.0/build/pseudopotentials/GBRV_v1.5/n_pbe_v1.2.uspp':
  Title: N.  Created by USPP 7.3.6 on 3-2-2014
  Reference state energy: -9.763716.  5 valence electrons in orbitals:
    |200>  occupation: 2  eigenvalue: -0.681964
    |210>  occupation: 3  eigenvalue: -0.260726
  lMax: 1  lLocal: 2  QijEcut: 6
  4 projectors sampled on a log grid with 491 points:
    l: 0  eig: -0.681964  rCut: 1.15
    l: 0  eig: 0.000000  rCut: 1.15
    l: 1  eig: -0.260729  rCut: 1.2
    l: 1  eig: 0.500000  rCut: 1.2
  Partial core density with radius 0.8
  Transforming core density to a uniform radial grid of dG=0.02 with 1464 points.
  Transforming local potential to a uniform radial grid of dG=0.02 with 1464 points.
  Transforming nonlocal projectors to a uniform radial grid of dG=0.02 with 432 points.
  Transforming density augmentations to a uniform radial grid of dG=0.02 with 1464 points.
  Transforming atomic orbitals to a uniform radial grid of dG=0.02 with 432 points.
  Core radius for overlap checks: 1.20 bohrs.

Reading pseudopotential file '/projects/musgravc/apps/jdftx-1.6.0/build/pseudopotentials/GBRV_v1.5/ti_pbe_v1.4.uspp':
  Title: Ti.  Created by USPP 7.3.6 on 31-3-15
  Reference state energy: -59.020943.  12 valence electrons in orbitals:
    |300>  occupation: 2  eigenvalue: -2.777623
    |310>  occupation: 6  eigenvalue: -1.894596
    |400>  occupation: 2  eigenvalue: -0.438610
    |320>  occupation: 1  eigenvalue: -0.583119
  lMax: 2  lLocal: 3  QijEcut: 6
  6 projectors sampled on a log grid with 597 points:
    l: 0  eig: -2.777624  rCut: 1.8
    l: 0  eig: -0.438611  rCut: 1.8
    l: 1  eig: -1.894596  rCut: 1.8
    l: 1  eig: 0.500000  rCut: 1.8
    l: 2  eig: -0.583118  rCut: 1.8
    l: 2  eig: 0.150000  rCut: 1.8
  Partial core density with radius 0.8
  Transforming core density to a uniform radial grid of dG=0.02 with 1464 points.
  Transforming local potential to a uniform radial grid of dG=0.02 with 1464 points.
  Transforming nonlocal projectors to a uniform radial grid of dG=0.02 with 432 points.
  Transforming density augmentations to a uniform radial grid of dG=0.02 with 1464 points.
  Transforming atomic orbitals to a uniform radial grid of dG=0.02 with 432 points.
  Core radius for overlap checks: 1.80 bohrs.

Reading pseudopotential file '/projects/musgravc/apps/jdftx-1.6.0/build/pseudopotentials/GBRV_v1.5/o_pbe_v1.2.uspp':
  Title: O.  Created by USPP 7.3.6 on 3-2-2014
  Reference state energy: -15.894388.  6 valence electrons in orbitals:
    |200>  occupation: 2  eigenvalue: -0.878823
    |210>  occupation: 4  eigenvalue: -0.332131
  lMax: 2  lLocal: 2  QijEcut: 6
  5 projectors sampled on a log grid with 511 points:
    l: 0  eig: -0.878823  rCut: 1.25
    l: 0  eig: 0.000000  rCut: 1.25
    l: 1  eig: -0.332132  rCut: 1.25
    l: 1  eig: 0.000000  rCut: 1.25
    l: 2  eig: 1.000000  rCut: 1.25
  Partial core density with radius 0.7
  Transforming core density to a uniform radial grid of dG=0.02 with 1464 points.
  Transforming local potential to a uniform radial grid of dG=0.02 with 1464 points.
  Transforming nonlocal projectors to a uniform radial grid of dG=0.02 with 432 points.
  Transforming density augmentations to a uniform radial grid of dG=0.02 with 1464 points.
  Transforming atomic orbitals to a uniform radial grid of dG=0.02 with 432 points.
  Core radius for overlap checks: 1.25 bohrs.

Reading pseudopotential file '/projects/musgravc/apps/jdftx-1.6.0/build/pseudopotentials/GBRV_v1.5/h_pbe_v1.4.uspp':
  Title: H.  Created by USPP 7.3.6 on 2-4-15
  Reference state energy: -0.458849.  1 valence electrons in orbitals:
    |100>  occupation: 1  eigenvalue: -0.238595
  lMax: 0  lLocal: 1  QijEcut: 6
  2 projectors sampled on a log grid with 395 points:
    l: 0  eig: -0.238595  rCut: 1.2
    l: 0  eig: 1.000000  rCut: 1.2
  Transforming local potential to a uniform radial grid of dG=0.02 with 1464 points.
  Transforming nonlocal projectors to a uniform radial grid of dG=0.02 with 432 points.
  Transforming density augmentations to a uniform radial grid of dG=0.02 with 1464 points.
  Transforming atomic orbitals to a uniform radial grid of dG=0.02 with 432 points.
  Core radius for overlap checks: 1.20 bohrs.

Initialized 5 species with 56 total atoms.

Folded 1 k-points by 3x3x1 to 9 k-points.

---------- Setting up k-points, bands, fillings ----------
No reducable k-points. 
Computing the number of bands and number of electrons
Calculating initial fillings.
nElectrons: 233.000000   nBands: 140   nStates: 18

----- Setting up reduced wavefunction bases (one per k-point) -----
average nbasis = 86412.556 , ideal nbasis = 86404.907

----- Initializing Supercell corresponding to k-point mesh -----
Lattice vector linear combinations in supercell:
[   3   0   0  ]
[   0   3   0  ]
[   0   0   1  ]
Supercell lattice vectors:
[  70.3088  -35.2004  0  ]
[  0.053982  59.8255  0  ]
[  0  0  43.2563  ]

Initializing DFT-D3 calculator:
	Parameters set for gga-PBE functional
	s6:  1.000  s_r6:  1.217
	s8:  0.722  s_r8:  1.000
	Per-atom parameters loaded for:
	 C:  sqrtQ[a0]:  3.105  Rcov[a0]:  1.417  CN: [ 0.00 0.99 2.00 3.00 3.98 ]
	 N:  sqrtQ[a0]:  2.712  Rcov[a0]:  1.342  CN: [ 0.00 0.99 2.01 2.99 ]
	Ti:  sqrtQ[a0]:  6.288  Rcov[a0]:  2.305  CN: [ 0.00 1.83 3.87 ]
	 O:  sqrtQ[a0]:  2.594  Rcov[a0]:  1.191  CN: [ 0.00 0.99 1.99 ]
	 H:  sqrtQ[a0]:  2.007  Rcov[a0]:  0.605  CN: [ 0.91 0.00 ]

Initializing DFT-D2 calculator for fluid / solvation:
	 C:  C6:   30.35 Eh-a0^6  R0: 2.744 a0
	 N:  C6:   21.33 Eh-a0^6  R0: 2.640 a0
	Ti:  C6:  187.33 Eh-a0^6  R0: 2.952 a0
	 O:  C6:   12.14 Eh-a0^6  R0: 2.536 a0
	 H:  C6:    2.43 Eh-a0^6  R0: 1.892 a0

---------- Setting up ewald sum ----------
Optimum gaussian width for ewald sums = 5.557061 bohr.
Real space sum over 567 unit cells with max indices [  4  4  3  ]
Reciprocal space sum over 7803 terms with max indices [  8  8  13  ]

Computing DFT-D3 correction:
# coordination-number C 3.300 3.321 3.334 3.332 3.312 3.290 3.323 3.609 3.330 3.314 3.302 3.326 3.306 3.302 3.325 3.597 3.269 3.301 3.320 3.334 3.326 3.301 3.301 3.326 3.334 3.320 3.301 3.268 3.607 3.325 3.302 3.305 3.330 3.303 3.314 3.330 3.606 3.326 3.290 3.312 3.332 3.334 3.320 3.300 3.015
# coordination-number N 3.181 3.177 3.176 3.180
# coordination-number Ti 7.503
# coordination-number O 1.992 1.989 2.109
# coordination-number H 1.091 0.992 0.992
# diagonal-C6 C 24.28 24.08 23.93 23.95 24.16 24.37 24.05 20.17 23.97 24.14 24.26 24.02 24.22 24.27 24.03 20.31 24.56 24.28 24.08 23.93 24.02 24.27 24.27 24.02 23.93 24.08 24.28 24.57 20.19 24.03 24.26 24.23 23.98 24.26 24.15 23.98 20.20 24.02 24.37 24.16 23.95 23.93 24.08 24.28 25.64
# diagonal-C6 N 15.60 15.60 15.60 15.60
# diagonal-C6 Ti 321.59
# diagonal-C6 O 10.41 10.41 10.39
# diagonal-C6 H 3.06 3.09 3.09
EvdW_6 =   -0.044031
EvdW_8 =   -0.033439

---------- Allocating electronic variables ----------
Initializing wave functions:  linear combination of atomic orbitals
C pseudo-atom occupations:   s ( 2 )  p ( 2 )
N pseudo-atom occupations:   s ( 2 )  p ( 3 )
Ti pseudo-atom occupations:   s ( 2 0 )  p ( 6 )  d ( 4 )
O pseudo-atom occupations:   s ( 2 )  p ( 4 )
H pseudo-atom occupations:   s ( 1 )
	FillingsUpdate:  mu: -0.145500000  nElectrons: 233.000000  magneticMoment: [ Abs: 0.00446  Tot: +0.00002 ]
LCAOMinimize: Iter:   0  G: -365.2044691626383042  |grad|_K:  4.231e-03  alpha:  1.000e+00
	FillingsUpdate:  mu: -0.145500000  nElectrons: 233.000000  magneticMoment: [ Abs: 0.00439  Tot: -0.00001 ]
LCAOMinimize: Iter:   1  G: -367.0436426742197682  |grad|_K:  1.539e-03  alpha:  9.964e-02  linmin: -1.411e-01  cgtest:  1.745e+00  t[s]:    323.57
LCAOMinimize: Encountered beta<0, resetting CG.
LCAOMinimize: 	Predicted alpha/alphaT>3.000000, increasing alphaT to 2.989203e-01.
LCAOMinimize: 	Predicted alpha/alphaT>3.000000, increasing alphaT to 8.967608e-01.
	FillingsUpdate:  mu: -0.145500000  nElectrons: 233.000000  magneticMoment: [ Abs: 0.00438  Tot: -0.00001 ]
LCAOMinimize: Iter:   2  G: -367.1095616713928962  |grad|_K:  1.447e-03  alpha:  3.249e-02  linmin: -1.634e-01  cgtest:  1.005e+00  t[s]:    516.73
LCAOMinimize: Encountered beta<0, resetting CG.
LCAOMinimize: 	Predicted alpha/alphaT>3.000000, increasing alphaT to 9.747097e-02.
LCAOMinimize: 	Predicted alpha/alphaT>3.000000, increasing alphaT to 2.924129e-01.
LCAOMinimize: 	Wrong curvature in test step, increasing alphaT to 8.772387e-01.
	FillingsUpdate:  mu: -0.145500000  nElectrons: 233.000000  magneticMoment: [ Abs: 0.00439  Tot: +0.00001 ]
LCAOMinimize: Iter:   3  G: -367.6537322117952158  |grad|_K:  1.195e-03  alpha: -8.697e+01  linmin: -2.165e-01  cgtest:  5.685e-01  t[s]:    708.28
	FillingsUpdate:  mu: -0.145500000  nElectrons: 233.000000  magneticMoment: [ Abs: 0.00440  Tot: +0.00001 ]
LCAOMinimize: Iter:   4  G: -367.7176596673083395  |grad|_K:  1.189e-03  alpha:  3.479e-02  linmin: -2.278e-01  cgtest:  9.072e-01  t[s]:    836.15
LCAOMinimize: 	Wrong curvature in test step, increasing alphaT to 1.043762e-01.
	FillingsUpdate:  mu: -0.145500000  nElectrons: 233.000000  magneticMoment: [ Abs: 0.00440  Tot: +0.00002 ]
LCAOMinimize: Iter:   5  G: -367.7688853647123892  |grad|_K:  1.176e-03  alpha: -4.883e-01  linmin: -2.371e-01  cgtest:  9.236e-01  t[s]:    961.84
	FillingsUpdate:  mu: -0.145500000  nElectrons: 233.000000  magneticMoment: [ Abs: 0.00441  Tot: +0.00002 ]
LCAOMinimize: Iter:   6  G: -367.8099411446619911  |grad|_K:  1.157e-03  alpha:  3.022e-02  linmin: -2.446e-01  cgtest:  9.375e-01  t[s]:   1090.59
LCAOMinimize: 	Wrong curvature in test step, increasing alphaT to 9.064573e-02.
	FillingsUpdate:  mu: -0.145500000  nElectrons: 233.000000  magneticMoment: [ Abs: 0.00441  Tot: +0.00002 ]
LCAOMinimize: Iter:   7  G: -367.8485433718190052  |grad|_K:  1.131e-03  alpha: -7.365e-01  linmin: -2.521e-01  cgtest:  9.403e-01  t[s]:   1219.01
	FillingsUpdate:  mu: -0.145500000  nElectrons: 233.000000  magneticMoment: [ Abs: 0.00442  Tot: +0.00002 ]
LCAOMinimize: Iter:   8  G: -367.8835343987414035  |grad|_K:  1.097e-03  alpha:  2.919e-02  linmin: -2.591e-01  cgtest:  9.449e-01  t[s]:   1349.84
LCAOMinimize: 	Wrong curvature in test step, increasing alphaT to 8.758016e-02.
	FillingsUpdate:  mu: -0.145500000  nElectrons: 233.000000  magneticMoment: [ Abs: 0.00442  Tot: +0.00002 ]
LCAOMinimize: Iter:   9  G: -367.9158813838479887  |grad|_K:  1.056e-03  alpha: -1.635e+00  linmin: -2.658e-01  cgtest:  9.478e-01  t[s]:   1478.33
	FillingsUpdate:  mu: -0.145500000  nElectrons: 233.000000  magneticMoment: [ Abs: 0.00443  Tot: +0.00002 ]
LCAOMinimize: Iter:  10  G: -367.9464589562142010  |grad|_K:  1.005e-03  alpha:  3.035e-02  linmin: -2.724e-01  cgtest:  9.491e-01  t[s]:   1610.53
LCAOMinimize: 	Predicted alpha/alphaT>3.000000, increasing alphaT to 9.106016e-02.
LCAOMinimize: 	Predicted alpha/alphaT>3.000000, increasing alphaT to 2.731805e-01.
	FillingsUpdate:  mu: -0.145500000  nElectrons: 233.000000  magneticMoment: [ Abs: 0.00447  Tot: +0.00002 ]
LCAOMinimize: Iter:  11  G: -368.0937145412033829  |grad|_K:  2.156e-04  alpha:  2.105e-01  linmin: -2.141e-01  cgtest:  4.325e-01  t[s]:   1809.01
LCAOMinimize: Encountered beta<0, resetting CG.
	FillingsUpdate:  mu: -0.145500000  nElectrons: 233.000000  magneticMoment: [ Abs: 0.00450  Tot: +0.00003 ]
LCAOMinimize: Iter:  12  G: -368.0992703812540299  |grad|_K:  8.641e-05  alpha:  2.762e-01  linmin:  4.740e-02  cgtest: -1.128e-01  t[s]:   1940.76
	FillingsUpdate:  mu: -0.145500000  nElectrons: 233.000000  magneticMoment: [ Abs: 0.00453  Tot: +0.00003 ]
LCAOMinimize: Iter:  13  G: -368.1001936078866947  |grad|_K:  5.235e-05  alpha:  3.038e-01  linmin: -1.599e-02  cgtest:  2.167e-01  t[s]:   2071.90
	FillingsUpdate:  mu: -0.145500000  nElectrons: 233.000000  magneticMoment: [ Abs: 0.00456  Tot: +0.00003 ]
LCAOMinimize: Iter:  14  G: -368.1005484426270300  |grad|_K:  2.196e-05  alpha:  2.855e-01  linmin: -4.814e-02  cgtest:  1.519e-01  t[s]:   2203.81
	FillingsUpdate:  mu: -0.145500000  nElectrons: 233.000000  magneticMoment: [ Abs: 0.00459  Tot: +0.00004 ]
LCAOMinimize: Iter:  15  G: -368.1006344050601342  |grad|_K:  2.660e-05  alpha:  6.919e-01  linmin:  9.175e-02  cgtest: -7.614e-01  t[s]:   2334.68
LCAOMinimize: 	Bad step direction: g.d > 0.
LCAOMinimize: 	Undoing step.
LCAOMinimize: 	Step failed: resetting search direction.
	FillingsUpdate:  mu: -0.145500000  nElectrons: 233.000000  magneticMoment: [ Abs: 0.00459  Tot: +0.00004 ]
LCAOMinimize: Iter:  16  G: -368.1006344050601342  |grad|_K:  2.660e-05  alpha:  0.000e+00
	FillingsUpdate:  mu: -0.145500000  nElectrons: 233.000000  magneticMoment: [ Abs: 0.00459  Tot: +0.00004 ]
LCAOMinimize: Iter:  17  G: -368.1006670458613712  |grad|_K:  9.484e-06  alpha:  1.494e-01  linmin: -1.732e-01  cgtest:  6.483e-01  t[s]:   2563.22
LCAOMinimize: Encountered beta<0, resetting CG.
	FillingsUpdate:  mu: -0.145500000  nElectrons: 233.000000  magneticMoment: [ Abs: 0.00459  Tot: +0.00004 ]
LCAOMinimize: Iter:  18  G: -368.1006702190495616  |grad|_K:  6.151e-06  alpha:  1.068e-01  linmin: -2.822e-01  cgtest:  9.915e-01  t[s]:   2695.16
LCAOMinimize: Encountered beta<0, resetting CG.
	FillingsUpdate:  mu: -0.145500000  nElectrons: 233.000000  magneticMoment: [ Abs: 0.00459  Tot: +0.00004 ]
LCAOMinimize: Iter:  19  G: -368.1006705598085773  |grad|_K:  5.011e-06  alpha:  5.910e-02  linmin: -2.824e-01  cgtest:  9.989e-01  t[s]:   2826.22
LCAOMinimize: Encountered beta<0, resetting CG.
	FillingsUpdate:  mu: -0.145500000  nElectrons: 233.000000  magneticMoment: [ Abs: 0.00459  Tot: +0.00004 ]
LCAOMinimize: Iter:  20  G: -368.1006705945670774  |grad|_K:  4.552e-06  alpha:  2.975e-02  linmin: -2.835e-01  cgtest:  9.998e-01  t[s]:   2958.35
LCAOMinimize: Encountered beta<0, resetting CG.
LCAOMinimize: Converged (|Delta G|<1.000000e-06 for 2 iters).
----- createFluidSolver() ----- (Fluid-side solver setup)
   Initializing fluid molecule 'H2O'
     Initializing site 'O'
       Electron density: proportional to exp(-r/0.36935)*erfc((r-0.51523)/0.36823) with norm 6.826
       Charge density: gaussian nuclear width 0.478731 with net site charge 0.826
       Polarizability: cuspless exponential with width 0.32 and norm 3.73
       Hard sphere radius: 2.57003 bohrs
       Positions in reference frame:
         [ +0.000000 +0.000000 +0.000000 ]
     Initializing site 'H'
       Electron density: proportional to exp(-r/0.34641)*erfc((r-0)/0.390882) with norm 0.587
       Charge density: gaussian nuclear width 0.377945 with net site charge -0.413
       Polarizability: cuspless exponential with width 0.39 and norm 3.3
       Positions in reference frame:
         [ +0.000000 -1.441945 +1.122523 ]
         [ +0.000000 +1.441945 +1.122523 ]
     Net charge: 0   dipole magnitude: 0.927204
     Initializing spherical shell mfKernel with radius 2.61727 Bohr
     deltaS corrections:
       site 'O': -7.54299
       site 'H': -6.83917
   Initializing fluid molecule 'Na+'
     Initializing site 'Na'
       Electron density: proportional to exp(-r/0.19682)*erfc((r-0.71491)/0.41314) with norm 8.1383
       Charge density: gaussian nuclear width 0.365347 with net site charge -1
       Hard sphere radius: 1.86327 bohrs
       Positions in reference frame:
         [ +0.000000 +0.000000 +0.000000 ]
     Net charge: -1   dipole magnitude: 0
     Initializing gaussian mfKernel with width: 1.55004 Bohr
     deltaS corrections:
       site 'Na': -22.3555
   Initializing fluid molecule 'F-'
     Initializing site 'F'
       Electron density: proportional to exp(-r/0.38886)*erfc((r-0)/0.438782) with norm 8
       Charge density: gaussian nuclear width 0.374796 with net site charge 1
       Hard sphere radius: 2.39995 bohrs
       Positions in reference frame:
         [ +0.000000 +0.000000 +0.000000 ]
     Net charge: 1   dipole magnitude: 0
     Initializing gaussian mfKernel with width: 1.59012 Bohr
     deltaS corrections:
       site 'F': -9.04335

Correction to mu due to finite nuclear width = -0.0114303
   Cavity determined by nc: 0.00142 and sigma: 0.707107
   Nonlocal vdW cavity from gaussian model electron density with norm = 8 and sigma = 0.993594 bohr
   Charge asymmetry in cavity with sensitivity pCavity = 36.5 e-bohr/Eh
   Electrostatic cavity expanded by eta = 1.46 bohrs
   Weighted density cavitation model constrained by Nbulk: 0.0049383 bohr^-3, Pvap: 3.14029 kPa, Rvdw: 2.61727 bohr and sigmaBulk: 4.62e-05 Eh/bohr^2 at T: 298 K.
   Weighted density dispersion model using vdW pair potentials with single solvent site with sqrtC6eff: 0.77 SI.
WARNING: Vibrations: switching off translationSym and rotationSym since useConstraints is on.

---- Citations for features of the code used in this run ----

   Software package:
      R. Sundararaman, K. Letchworth-Weaver, K.A. Schwarz, D. Gunceler, Y. Ozhabes and T.A. Arias, 'JDFTx: software for joint density-functional theory', SoftwareX 6, 278 (2017)

   gga-PBE exchange-correlation functional:
      J.P. Perdew, K. Burke and M. Ernzerhof, Phys. Rev. Lett. 77, 3865 (1996)

   Pseudopotentials:
      KF Garrity, JW Bennett, KM Rabe and D Vanderbilt, Comput. Mater. Sci. 81, 446 (2014)

   DFT-D3 dispersion correction:
      S. Grimme, J. Antony, S. Ehrlich and H. Krieg, J. Chem. Phys. 132, 154104 (2010)

   DFT-D2 dispersion correction:
      S. Grimme, J. Comput. Chem. 27, 1787 (2006)

   Charge-asymmetric nonlocally-determined local-electric (CANDLE) solvation model:
      R. Sundararaman and W.A. Goddard III, J. Chem. Phys. 142, 064107 (2015)

   Total energy minimization with Auxiliary Hamiltonian:
      C. Freysoldt, S. Boeck, and J. Neugebauer, Phys. Rev. B 79, 241103(R) (2009)

   Grand-canonical (fixed-potential) DFT:
      R. Sundararaman, W. A. Goddard III and T. A. Arias, J. Chem. Phys. 146, 114104 (2017)

   Linear-tetrahedron sampling for density of states:
      G. Lehmann and M. Taut, Phys. status solidi (b) 54, 469 (1972)

This list may not be complete. Please suggest additional citations or
report any other bugs at https://github.com/shankar1729/jdftx/issues

Initialization completed successfully at t[s]:   2976.21

------ Vibrations::calculate() -------
WARNING: Vibrations module is experimental. Please report bugs!
Compare results with and without symmetries and report discrepancies.
Degrees of freedom: 21 total, 21 symmetry-independent.

Computing DFT-D3 correction:
# coordination-number C 3.300 3.321 3.334 3.332 3.312 3.290 3.323 3.609 3.330 3.314 3.302 3.326 3.306 3.302 3.325 3.597 3.269 3.301 3.320 3.334 3.326 3.301 3.301 3.326 3.334 3.320 3.301 3.268 3.607 3.325 3.302 3.305 3.330 3.303 3.314 3.330 3.606 3.326 3.290 3.312 3.332 3.334 3.320 3.300 3.015
# coordination-number N 3.181 3.177 3.176 3.180
# coordination-number Ti 7.503
# coordination-number O 1.992 1.989 2.109
# coordination-number H 1.091 0.992 0.992
# diagonal-C6 C 24.28 24.08 23.93 23.95 24.16 24.37 24.05 20.17 23.97 24.14 24.26 24.02 24.22 24.27 24.03 20.31 24.56 24.28 24.08 23.93 24.02 24.27 24.27 24.02 23.93 24.08 24.28 24.57 20.19 24.03 24.26 24.23 23.98 24.26 24.15 23.98 20.20 24.02 24.37 24.16 23.95 23.93 24.08 24.28 25.64
# diagonal-C6 N 15.60 15.60 15.60 15.60
# diagonal-C6 Ti 321.59
# diagonal-C6 O 10.41 10.41 10.39
# diagonal-C6 H 3.06 3.09 3.09
EvdW_6 =   -0.044031
EvdW_8 =   -0.033439
Fluid solver invoked on fresh (random / LCAO) wavefunctions
Running a vacuum solve first:

-------- Initial electronic minimization -----------
	FillingsUpdate:  mu: -0.173485802  nElectrons: 233.000000  magneticMoment: [ Abs: 0.00459  Tot: +0.00004 ]
ElecMinimize: Iter:   0  G: -368.100497327060225  |grad|_K:  1.439e-04  alpha:  1.000e+00
	FillingsUpdate:  mu: -0.109211557  nElectrons: 233.000000  magneticMoment: [ Abs: 0.00253  Tot: +0.00004 ]
	SubspaceRotationAdjust: set factor to 1
ElecMinimize: Iter:   1  G: -371.133211262591090  |grad|_K:  4.589e-05  alpha:  6.805e-01  linmin:  4.632e-04  t[s]:   3190.30
	FillingsUpdate:  mu: -0.049686884  nElectrons: 233.000000  magneticMoment: [ Abs: 0.00247  Tot: +0.00017 ]
	SubspaceRotationAdjust: set factor to 0.602
ElecMinimize: Iter:   2  G: -371.205063084737844  |grad|_K:  6.036e-05  alpha:  1.075e-01  linmin:  1.077e-03  t[s]:   3320.16
	FillingsUpdate:  mu: -0.044154386  nElectrons: 233.000000  magneticMoment: [ Abs: 0.00194  Tot: +0.00059 ]
	SubspaceRotationAdjust: set factor to 0.354
ElecMinimize: Iter:   3  G: -371.211726923351819  |grad|_K:  1.010e-04  alpha:  2.377e-01  linmin:  1.119e-03  t[s]:   3450.02
	FillingsUpdate:  mu: -0.044511435  nElectrons: 233.000000  magneticMoment: [ Abs: 0.00190  Tot: +0.00068 ]
	SubspaceRotationAdjust: set factor to 0.236
ElecMinimize: Iter:   4  G: -371.219210616156147  |grad|_K:  7.961e-05  alpha:  1.302e-02  linmin: -6.181e-05  t[s]:   3579.89
ElecMinimize: 	Predicted alpha/alphaT>3.000000, increasing alphaT to 3.907493e-02.
	FillingsUpdate:  mu: -0.055606869  nElectrons: 233.000000  magneticMoment: [ Abs: 0.00195  Tot: +0.00111 ]
	SubspaceRotationAdjust: set factor to 0.327
ElecMinimize: Iter:   5  G: -371.306189533986014  |grad|_K:  4.430e-05  alpha:  5.976e-02  linmin: -4.844e-05  t[s]:   3742.74
	FillingsUpdate:  mu: -0.055096874  nElectrons: 233.000000  magneticMoment: [ Abs: 0.00175  Tot: +0.00117 ]
	SubspaceRotationAdjust: set factor to 0.354
ElecMinimize: Iter:   6  G: -371.361534116080122  |grad|_K:  2.997e-05  alpha:  1.122e-01  linmin:  5.621e-05  t[s]:   3873.26
	FillingsUpdate:  mu: -0.111544429  nElectrons: 233.000000  magneticMoment: [ Abs: 0.00120  Tot: +0.00065 ]
	SubspaceRotationAdjust: set factor to 0.37
ElecMinimize: Iter:   7  G: -371.377084674358855  |grad|_K:  3.272e-05  alpha:  8.992e-02  linmin: -1.568e-04  t[s]:   4003.79
	FillingsUpdate:  mu: -0.123472030  nElectrons: 233.000000  magneticMoment: [ Abs: 0.00094  Tot: +0.00049 ]
	SubspaceRotationAdjust: set factor to 0.32
ElecMinimize: Iter:   8  G: -371.414697404473941  |grad|_K:  2.922e-05  alpha:  1.485e-01  linmin: -5.938e-05  t[s]:   4134.18
	FillingsUpdate:  mu: -0.084737861  nElectrons: 233.000000  magneticMoment: [ Abs: 0.00225  Tot: +0.00195 ]
	SubspaceRotationAdjust: set factor to 0.592
ElecMinimize: Iter:   9  G: -371.440183210517716  |grad|_K:  1.865e-05  alpha:  1.284e-01  linmin:  6.418e-04  t[s]:   4264.44
	FillingsUpdate:  mu: -0.052063398  nElectrons: 233.000000  magneticMoment: [ Abs: 0.00329  Tot: +0.00304 ]
	SubspaceRotationAdjust: set factor to 0.541
ElecMinimize: Iter:  10  G: -371.445469340527268  |grad|_K:  1.662e-05  alpha:  8.221e-02  linmin:  1.596e-04  t[s]:   4394.33
	FillingsUpdate:  mu: -0.052387596  nElectrons: 233.000000  magneticMoment: [ Abs: 0.00594  Tot: +0.00577 ]
	SubspaceRotationAdjust: set factor to 0.427
ElecMinimize: Iter:  11  G: -371.455973791456017  |grad|_K:  2.052e-05  alpha:  1.753e-01  linmin: -8.326e-05  t[s]:   4524.41
	FillingsUpdate:  mu: -0.052664761  nElectrons: 233.000000  magneticMoment: [ Abs: 0.00756  Tot: +0.00740 ]
	SubspaceRotationAdjust: set factor to 0.809
ElecMinimize: Iter:  12  G: -371.468794886191461  |grad|_K:  1.129e-05  alpha:  1.279e-01  linmin:  7.419e-05  t[s]:   4654.31
	FillingsUpdate:  mu: -0.069462296  nElectrons: 233.000000  magneticMoment: [ Abs: 0.00703  Tot: +0.00683 ]
	SubspaceRotationAdjust: set factor to 0.702
ElecMinimize: Iter:  13  G: -371.471520171278030  |grad|_K:  1.047e-05  alpha:  1.032e-01  linmin: -2.573e-05  t[s]:   4784.30
	FillingsUpdate:  mu: -0.066507755  nElectrons: 233.000000  magneticMoment: [ Abs: 0.01371  Tot: +0.01348 ]
	SubspaceRotationAdjust: set factor to 0.798
ElecMinimize: Iter:  14  G: -371.476468101455509  |grad|_K:  7.297e-06  alpha:  2.046e-01  linmin:  5.352e-06  t[s]:   4914.35
	FillingsUpdate:  mu: -0.053985558  nElectrons: 233.000000  magneticMoment: [ Abs: 0.02160  Tot: +0.02135 ]
	SubspaceRotationAdjust: set factor to 0.572
ElecMinimize: Iter:  15  G: -371.477600830186134  |grad|_K:  6.388e-06  alpha:  9.745e-02  linmin:  1.123e-05  t[s]:   5044.61
	FillingsUpdate:  mu: -0.054191011  nElectrons: 233.000000  magneticMoment: [ Abs: 0.04860  Tot: +0.04813 ]
	SubspaceRotationAdjust: set factor to 0.829
ElecMinimize: Iter:  16  G: -371.479868209366316  |grad|_K:  4.777e-06  alpha:  2.584e-01  linmin:  2.576e-06  t[s]:   5175.22
	FillingsUpdate:  mu: -0.062211850  nElectrons: 233.000000  magneticMoment: [ Abs: 0.06400  Tot: +0.06326 ]
	SubspaceRotationAdjust: set factor to 0.663
ElecMinimize: Iter:  17  G: -371.480578043547268  |grad|_K:  4.790e-06  alpha:  1.438e-01  linmin:  3.895e-06  t[s]:   5305.86
	FillingsUpdate:  mu: -0.055252436  nElectrons: 233.000000  magneticMoment: [ Abs: 0.12354  Tot: +0.12225 ]
	SubspaceRotationAdjust: set factor to 0.64
ElecMinimize: Iter:  18  G: -371.481406844976959  |grad|_K:  2.792e-06  alpha:  1.669e-01  linmin:  1.461e-05  t[s]:   5436.57
	FillingsUpdate:  mu: -0.056058577  nElectrons: 233.000000  magneticMoment: [ Abs: 0.24624  Tot: +0.24322 ]
	SubspaceRotationAdjust: set factor to 0.79
ElecMinimize: Iter:  19  G: -371.482036044954555  |grad|_K:  2.826e-06  alpha:  3.849e-01  linmin:  1.044e-04  t[s]:   5567.19
	FillingsUpdate:  mu: -0.054835631  nElectrons: 233.000000  magneticMoment: [ Abs: 0.36893  Tot: +0.36241 ]
	SubspaceRotationAdjust: set factor to 0.907
ElecMinimize: Iter:  20  G: -371.482497042018792  |grad|_K:  3.047e-06  alpha:  2.725e-01  linmin:  7.481e-05  t[s]:   5697.35
	FillingsUpdate:  mu: -0.056859559  nElectrons: 233.000000  magneticMoment: [ Abs: 0.43206  Tot: +0.41839 ]
	SubspaceRotationAdjust: set factor to 1.03
ElecMinimize: Iter:  21  G: -371.482851205557949  |grad|_K:  2.450e-06  alpha:  1.931e-01  linmin: -1.033e-04  t[s]:   5827.56
	FillingsUpdate:  mu: -0.056802838  nElectrons: 233.000000  magneticMoment: [ Abs: 0.49011  Tot: +0.46327 ]
	SubspaceRotationAdjust: set factor to 1.16
ElecMinimize: Iter:  22  G: -371.483185064938425  |grad|_K:  1.856e-06  alpha:  2.435e-01  linmin: -6.795e-05  t[s]:   5957.79
	FillingsUpdate:  mu: -0.059598095  nElectrons: 233.000000  magneticMoment: [ Abs: 0.52501  Tot: +0.48203 ]
	SubspaceRotationAdjust: set factor to 1.13
ElecMinimize: Iter:  23  G: -371.483391247516636  |grad|_K:  1.877e-06  alpha:  2.628e-01  linmin: -5.137e-06  t[s]:   6087.88
	FillingsUpdate:  mu: -0.056402770  nElectrons: 233.000000  magneticMoment: [ Abs: 0.55981  Tot: +0.50418 ]
	SubspaceRotationAdjust: set factor to 0.864
ElecMinimize: Iter:  24  G: -371.483481557572929  |grad|_K:  1.855e-06  alpha:  1.297e-01  linmin:  4.385e-05  t[s]:   6218.23
	FillingsUpdate:  mu: -0.058485666  nElectrons: 233.000000  magneticMoment: [ Abs: 0.58037  Tot: +0.50934 ]
	SubspaceRotationAdjust: set factor to 0.769
ElecMinimize: Iter:  25  G: -371.483583617655427  |grad|_K:  1.175e-06  alpha:  1.431e-01  linmin: -4.792e-06  t[s]:   6348.52
	FillingsUpdate:  mu: -0.058743972  nElectrons: 233.000000  magneticMoment: [ Abs: 0.59971  Tot: +0.51507 ]
	SubspaceRotationAdjust: set factor to 0.871
ElecMinimize: Iter:  26  G: -371.483661389362737  |grad|_K:  9.200e-07  alpha:  2.571e-01  linmin: -1.995e-06  t[s]:   6479.19
	FillingsUpdate:  mu: -0.057029909  nElectrons: 233.000000  magneticMoment: [ Abs: 0.61304  Tot: +0.52052 ]
	SubspaceRotationAdjust: set factor to 0.844
ElecMinimize: Iter:  27  G: -371.483699612871703  |grad|_K:  8.817e-07  alpha:  2.080e-01  linmin: -6.160e-05  t[s]:   6609.97
	FillingsUpdate:  mu: -0.058126556  nElectrons: 233.000000  magneticMoment: [ Abs: 0.61498  Tot: +0.51737 ]
	SubspaceRotationAdjust: set factor to 0.913
ElecMinimize: Iter:  28  G: -371.483731112764985  |grad|_K:  6.575e-07  alpha:  1.849e-01  linmin:  4.377e-06  t[s]:   6740.54
	FillingsUpdate:  mu: -0.057831513  nElectrons: 233.000000  magneticMoment: [ Abs: 0.61616  Tot: +0.51493 ]
	SubspaceRotationAdjust: set factor to 1.08
ElecMinimize: Iter:  29  G: -371.483756846812298  |grad|_K:  5.341e-07  alpha:  2.736e-01  linmin:  3.689e-07  t[s]:   6870.75
	FillingsUpdate:  mu: -0.057264068  nElectrons: 233.000000  magneticMoment: [ Abs: 0.61398  Tot: +0.51200 ]
	SubspaceRotationAdjust: set factor to 1.06
ElecMinimize: Iter:  30  G: -371.483773443588518  |grad|_K:  5.146e-07  alpha:  2.670e-01  linmin: -2.301e-07  t[s]:   7000.79
	FillingsUpdate:  mu: -0.058133630  nElectrons: 233.000000  magneticMoment: [ Abs: 0.60791  Tot: +0.50700 ]
	SubspaceRotationAdjust: set factor to 0.927
ElecMinimize: Iter:  31  G: -371.483781064093648  |grad|_K:  4.484e-07  alpha:  1.282e-01  linmin: -1.755e-05  t[s]:   7129.85
	FillingsUpdate:  mu: -0.057621624  nElectrons: 233.000000  magneticMoment: [ Abs: 0.60376  Tot: +0.50484 ]
	SubspaceRotationAdjust: set factor to 0.984
ElecMinimize: Iter:  32  G: -371.483788972681907  |grad|_K:  3.099e-07  alpha:  1.776e-01  linmin:  3.070e-07  t[s]:   7258.92
	FillingsUpdate:  mu: -0.057458830  nElectrons: 233.000000  magneticMoment: [ Abs: 0.59858  Tot: +0.50275 ]
	SubspaceRotationAdjust: set factor to 1.12
ElecMinimize: Iter:  33  G: -371.483794744364559  |grad|_K:  2.727e-07  alpha:  2.759e-01  linmin:  6.687e-07  t[s]:   7387.90
	FillingsUpdate:  mu: -0.057936917  nElectrons: 233.000000  magneticMoment: [ Abs: 0.59435  Tot: +0.50063 ]
	SubspaceRotationAdjust: set factor to 0.999
ElecMinimize: Iter:  34  G: -371.483797214471451  |grad|_K:  2.658e-07  alpha:  1.516e-01  linmin: -1.027e-05  t[s]:   7516.76
	FillingsUpdate:  mu: -0.057573698  nElectrons: 233.000000  magneticMoment: [ Abs: 0.59308  Tot: +0.50130 ]
	SubspaceRotationAdjust: set factor to 0.885
ElecMinimize: Iter:  35  G: -371.483799169186000  |grad|_K:  1.735e-07  alpha:  1.266e-01  linmin:  6.300e-08  t[s]:   7646.01
	FillingsUpdate:  mu: -0.057615911  nElectrons: 233.000000  magneticMoment: [ Abs: 0.59074  Tot: +0.50144 ]
	SubspaceRotationAdjust: set factor to 1.04
ElecMinimize: Iter:  36  G: -371.483800933645512  |grad|_K:  1.458e-07  alpha:  2.689e-01  linmin: -2.375e-07  t[s]:   7775.13
	FillingsUpdate:  mu: -0.057724677  nElectrons: 233.000000  magneticMoment: [ Abs: 0.58894  Tot: +0.50172 ]
	SubspaceRotationAdjust: set factor to 1.18
ElecMinimize: Iter:  37  G: -371.483802192938754  |grad|_K:  1.353e-07  alpha:  2.716e-01  linmin:  3.371e-08  t[s]:   7904.26
	FillingsUpdate:  mu: -0.057487470  nElectrons: 233.000000  magneticMoment: [ Abs: 0.58918  Tot: +0.50283 ]
	SubspaceRotationAdjust: set factor to 1.02
ElecMinimize: Iter:  38  G: -371.483802774779804  |grad|_K:  1.326e-07  alpha:  1.462e-01  linmin:  8.787e-07  t[s]:   8033.71
	FillingsUpdate:  mu: -0.057673968  nElectrons: 233.000000  magneticMoment: [ Abs: 0.58845  Tot: +0.50287 ]
	SubspaceRotationAdjust: set factor to 0.854
ElecMinimize: Iter:  39  G: -371.483803302568901  |grad|_K:  9.664e-08  alpha:  1.379e-01  linmin:  3.930e-08  t[s]:   8163.20
	FillingsUpdate:  mu: -0.057632936  nElectrons: 233.000000  magneticMoment: [ Abs: 0.58886  Tot: +0.50366 ]
	SubspaceRotationAdjust: set factor to 0.98
ElecMinimize: Iter:  40  G: -371.483803809456504  |grad|_K:  7.654e-08  alpha:  2.486e-01  linmin: -4.946e-06  t[s]:   8293.04
	FillingsUpdate:  mu: -0.057664082  nElectrons: 233.000000  magneticMoment: [ Abs: 0.58931  Tot: +0.50406 ]
	SubspaceRotationAdjust: set factor to 1.06
ElecMinimize: Iter:  41  G: -371.483804146361877  |grad|_K:  5.963e-08  alpha:  2.633e-01  linmin:  1.130e-06  t[s]:   8422.53
	FillingsUpdate:  mu: -0.057670729  nElectrons: 233.000000  magneticMoment: [ Abs: 0.58984  Tot: +0.50425 ]
	SubspaceRotationAdjust: set factor to 1.2
ElecMinimize: Iter:  42  G: -371.483804346357090  |grad|_K:  4.691e-08  alpha:  2.581e-01  linmin: -9.892e-07  t[s]:   8548.29
	FillingsUpdate:  mu: -0.057642193  nElectrons: 233.000000  magneticMoment: [ Abs: 0.59033  Tot: +0.50428 ]
	SubspaceRotationAdjust: set factor to 1.36
ElecMinimize: Iter:  43  G: -371.483804466706545  |grad|_K:  3.895e-08  alpha:  2.509e-01  linmin: -2.538e-07  t[s]:   8676.56
	FillingsUpdate:  mu: -0.057699422  nElectrons: 233.000000  magneticMoment: [ Abs: 0.59036  Tot: +0.50392 ]
	SubspaceRotationAdjust: set factor to 1.22
ElecMinimize: Iter:  44  G: -371.483804532489501  |grad|_K:  4.445e-08  alpha:  1.989e-01  linmin: -6.851e-08  t[s]:   8804.58
	FillingsUpdate:  mu: -0.057627779  nElectrons: 233.000000  magneticMoment: [ Abs: 0.59068  Tot: +0.50392 ]
	SubspaceRotationAdjust: set factor to 0.913
ElecMinimize: Iter:  45  G: -371.483804575181296  |grad|_K:  3.379e-08  alpha:  9.921e-02  linmin:  5.473e-07  t[s]:   8931.89
ElecMinimize: Converged (|Delta G|<1.000000e-07 for 2 iters).
Setting wave functions to eigenvectors of Hamiltonian
Converging empty states (this may take a while): |deigs|: 1.026e-02
Vacuum energy after initial minimize, F = -371.483804575181296

Shifting auxilliary hamiltonian by -0.087872 to set nElectrons=233.000000

-------- Electronic minimization -----------
	Linear fluid (dielectric constant: 78.4, screening length: 8.12261 Bohr) occupying 0.707122 of unit cell:	Completed after 23 iterations at t[s]:   9598.62
	FillingsUpdate:  mu: -0.145500000  nElectrons: 233.000000  magneticMoment: [ Abs: 0.58928  Tot: +0.50243 ]
ElecMinimize: Iter:   0  G: -371.493406254936872  |grad|_K:  1.224e-05  alpha:  1.000e+00
	Linear fluid (dielectric constant: 78.4, screening length: 8.12261 Bohr) occupying 0.707589 of unit cell:	Completed after 21 iterations at t[s]:   9724.91
	Linear fluid (dielectric constant: 78.4, screening length: 8.12261 Bohr) occupying 0.706947 of unit cell:	Completed after 17 iterations at t[s]:   9776.86
ElecMinimize: 	Step increased G by 1.546110e-02, reducing alpha to 3.533029e-02.
	Linear fluid (dielectric constant: 78.4, screening length: 8.12261 Bohr) occupying 0.706944 of unit cell:	Completed after 19 iterations at t[s]:   9882.66
	FillingsUpdate:  mu: -0.145500000  nElectrons: 232.876891  magneticMoment: [ Abs: 0.50053  Tot: +0.40104 ]
	SubspaceRotationAdjust: set factor to 0.539
ElecMinimize: Iter:   1  G: -371.494455447679456  |grad|_K:  9.263e-06  alpha:  3.533e-02  linmin:  1.117e-03  t[s]:   9938.67
	Linear fluid (dielectric constant: 78.4, screening length: 8.12261 Bohr) occupying 0.706998 of unit cell:	Completed after 11 iterations at t[s]:   9993.36
ElecMinimize: 	Predicted alpha/alphaT>3.000000, increasing alphaT to 1.059909e-01.
	Linear fluid (dielectric constant: 78.4, screening length: 8.12261 Bohr) occupying 0.707138 of unit cell:	Completed after 13 iterations at t[s]:  10042.57
	Linear fluid (dielectric constant: 78.4, screening length: 8.12261 Bohr) occupying 0.707276 of unit cell:	Completed after 9 iterations at t[s]:  10088.99
	FillingsUpdate:  mu: -0.145500000  nElectrons: 232.815763  magneticMoment: [ Abs: 0.50189  Tot: +0.37037 ]
	SubspaceRotationAdjust: set factor to 0.264
ElecMinimize: Iter:   2  G: -371.497627530148691  |grad|_K:  5.701e-06  alpha:  1.674e-01  linmin: -1.482e-03  t[s]:  10144.92
	Linear fluid (dielectric constant: 78.4, screening length: 8.12261 Bohr) occupying 0.707352 of unit cell:	Completed after 16 iterations at t[s]:  10202.64
	Linear fluid (dielectric constant: 78.4, screening length: 8.12261 Bohr) occupying 0.707304 of unit cell:	Completed after 15 iterations at t[s]:  10254.15
	FillingsUpdate:  mu: -0.145500000  nElectrons: 232.717261  magneticMoment: [ Abs: 0.42549  Tot: +0.27267 ]
	SubspaceRotationAdjust: set factor to 0.134
ElecMinimize: Iter:   3  G: -371.498341539922080  |grad|_K:  4.812e-06  alpha:  9.639e-02  linmin:  2.391e-04  t[s]:  10310.37
	Linear fluid (dielectric constant: 78.4, screening length: 8.12261 Bohr) occupying 0.707480 of unit cell:	Completed after 8 iterations at t[s]:  10362.85
ElecMinimize: 	Predicted alpha/alphaT>3.000000, increasing alphaT to 2.891562e-01.
	Linear fluid (dielectric constant: 78.4, screening length: 8.12261 Bohr) occupying 0.707839 of unit cell:	Completed after 9 iterations at t[s]:  10409.46
	Linear fluid (dielectric constant: 78.4, screening length: 8.12261 Bohr) occupying 0.708376 of unit cell:	Completed after 11 iterations at t[s]:  10458.06
	FillingsUpdate:  mu: -0.145500000  nElectrons: 232.626386  magneticMoment: [ Abs: 0.41262  Tot: +0.20615 ]
	SubspaceRotationAdjust: set factor to 0.0649
	SubspaceRotationAdjust: resetting CG because factor has changed by 0.0710451
	Linear fluid (dielectric constant: 78.4, screening length: 8.12261 Bohr) occupying 0.708376 of unit cell:	Completed after 0 iterations at t[s]:  10537.46
ElecMinimize: 	State modified externally: resetting search direction.
ElecMinimize: Iter:   4  G: -371.500661567004784  |grad|_K:  3.237e-06  alpha:  5.742e-01
	Linear fluid (dielectric constant: 78.4, screening length: 8.12261 Bohr) occupying 0.708414 of unit cell:	Completed after 17 iterations at t[s]:  10651.35
	Linear fluid (dielectric constant: 78.4, screening length: 8.12261 Bohr) occupying 0.708389 of unit cell:	Completed after 14 iterations at t[s]:  10701.43
	FillingsUpdate:  mu: -0.145500000  nElectrons: 232.592469  magneticMoment: [ Abs: 0.38053  Tot: +0.17218 ]
	SubspaceRotationAdjust: set factor to 0.149
ElecMinimize: Iter:   5  G: -371.501262137603817  |grad|_K:  1.262e-06  alpha:  2.804e-01  linmin:  4.193e-03  t[s]:  10757.41
	Linear fluid (dielectric constant: 78.4, screening length: 8.12261 Bohr) occupying 0.708464 of unit cell:	Completed after 9 iterations at t[s]:  10810.78
	Linear fluid (dielectric constant: 78.4, screening length: 8.12261 Bohr) occupying 0.708580 of unit cell:	Completed after 10 iterations at t[s]:  10858.41
	FillingsUpdate:  mu: -0.145500000  nElectrons: 232.594155  magneticMoment: [ Abs: 0.37580  Tot: +0.17091 ]
	SubspaceRotationAdjust: set factor to 0.159
ElecMinimize: Iter:   6  G: -371.501502829037406  |grad|_K:  8.009e-07  alpha:  7.159e-01  linmin: -9.362e-05  t[s]:  10914.37
	Linear fluid (dielectric constant: 78.4, screening length: 8.12261 Bohr) occupying 0.708763 of unit cell:	Completed after 9 iterations at t[s]:  10967.84
	Linear fluid (dielectric constant: 78.4, screening length: 8.12261 Bohr) occupying 0.708799 of unit cell:	Completed after 3 iterations at t[s]:  11010.37
	FillingsUpdate:  mu: -0.145500000  nElectrons: 232.590754  magneticMoment: [ Abs: 0.36097  Tot: +0.16196 ]
	SubspaceRotationAdjust: set factor to 0.179
ElecMinimize: Iter:   7  G: -371.501623294039746  |grad|_K:  7.351e-07  alpha:  8.585e-01  linmin: -5.814e-05  t[s]:  11066.28
	Linear fluid (dielectric constant: 78.4, screening length: 8.12261 Bohr) occupying 0.709046 of unit cell:	Completed after 13 iterations at t[s]:  11122.22
	Linear fluid (dielectric constant: 78.4, screening length: 8.12261 Bohr) occupying 0.708903 of unit cell:	Completed after 10 iterations at t[s]:  11169.16
	FillingsUpdate:  mu: -0.145500000  nElectrons: 232.597355  magneticMoment: [ Abs: 0.36007  Tot: +0.16586 ]
	SubspaceRotationAdjust: set factor to 0.113
ElecMinimize: Iter:   8  G: -371.501666469294889  |grad|_K:  7.720e-07  alpha:  3.634e-01  linmin: -4.339e-05  t[s]:  11224.09
	Linear fluid (dielectric constant: 78.4, screening length: 8.12261 Bohr) occupying 0.708982 of unit cell:	Completed after 11 iterations at t[s]:  11278.02
	Linear fluid (dielectric constant: 78.4, screening length: 8.12261 Bohr) occupying 0.708986 of unit cell:	Completed after 1 iterations at t[s]:  11319.48
	FillingsUpdate:  mu: -0.145500000  nElectrons: 232.582305  magneticMoment: [ Abs: 0.33652  Tot: +0.14799 ]
	SubspaceRotationAdjust: set factor to 0.106
ElecMinimize: Iter:   9  G: -371.501716044058810  |grad|_K:  3.958e-07  alpha:  3.790e-01  linmin: -2.047e-04  t[s]:  11375.52
	Linear fluid (dielectric constant: 78.4, screening length: 8.12261 Bohr) occupying 0.708990 of unit cell:	Completed after 2 iterations at t[s]:  11423.88
	Linear fluid (dielectric constant: 78.4, screening length: 8.12261 Bohr) occupying 0.708996 of unit cell:	Completed after 6 iterations at t[s]:  11468.36
	FillingsUpdate:  mu: -0.145500000  nElectrons: 232.576615  magneticMoment: [ Abs: 0.31924  Tot: +0.13973 ]
	SubspaceRotationAdjust: set factor to 0.13
ElecMinimize: Iter:  10  G: -371.501753636087187  |grad|_K:  4.260e-07  alpha:  1.064e+00  linmin: -1.648e-05  t[s]:  11525.00
	Linear fluid (dielectric constant: 78.4, screening length: 8.12261 Bohr) occupying 0.708967 of unit cell:	Completed after 7 iterations at t[s]:  11577.51
	Linear fluid (dielectric constant: 78.4, screening length: 8.12261 Bohr) occupying 0.708982 of unit cell:	Completed after 4 iterations at t[s]:  11621.36
	FillingsUpdate:  mu: -0.145500000  nElectrons: 232.576809  magneticMoment: [ Abs: 0.31047  Tot: +0.13844 ]
	SubspaceRotationAdjust: set factor to 0.122
ElecMinimize: Iter:  11  G: -371.501774838913832  |grad|_K:  3.967e-07  alpha:  5.289e-01  linmin: -7.768e-06  t[s]:  11678.62
	Linear fluid (dielectric constant: 78.4, screening length: 8.12261 Bohr) occupying 0.708941 of unit cell:	Completed after 9 iterations at t[s]:  11732.80
	Linear fluid (dielectric constant: 78.4, screening length: 8.12261 Bohr) occupying 0.708939 of unit cell:	Completed after 2 iterations at t[s]:  11775.34
	FillingsUpdate:  mu: -0.145500000  nElectrons: 232.567432  magneticMoment: [ Abs: 0.29175  Tot: +0.12778 ]
	SubspaceRotationAdjust: set factor to 0.0963
ElecMinimize: Iter:  12  G: -371.501794086032817  |grad|_K:  3.482e-07  alpha:  5.588e-01  linmin: -1.024e-04  t[s]:  11832.86
	Linear fluid (dielectric constant: 78.4, screening length: 8.12261 Bohr) occupying 0.708917 of unit cell:	Completed after 3 iterations at t[s]:  11882.78
	Linear fluid (dielectric constant: 78.4, screening length: 8.12261 Bohr) occupying 0.708921 of unit cell:	Completed after 2 iterations at t[s]:  11926.61
	FillingsUpdate:  mu: -0.145500000  nElectrons: 232.566838  magneticMoment: [ Abs: 0.28280  Tot: +0.12631 ]
	SubspaceRotationAdjust: set factor to 0.105
ElecMinimize: Iter:  13  G: -371.501806929294958  |grad|_K:  2.327e-07  alpha:  4.693e-01  linmin:  1.928e-05  t[s]:  11983.59
	Linear fluid (dielectric constant: 78.4, screening length: 8.12261 Bohr) occupying 0.708921 of unit cell:	Completed after 2 iterations at t[s]:  12032.70
	Linear fluid (dielectric constant: 78.4, screening length: 8.12261 Bohr) occupying 0.708921 of unit cell:	Completed after 2 iterations at t[s]:  12075.06
	FillingsUpdate:  mu: -0.145500000  nElectrons: 232.565906  magneticMoment: [ Abs: 0.27417  Tot: +0.12474 ]
	SubspaceRotationAdjust: set factor to 0.12
ElecMinimize: Iter:  14  G: -371.501815518498972  |grad|_K:  1.701e-07  alpha:  7.329e-01  linmin: -8.363e-06  t[s]:  12132.37
	Linear fluid (dielectric constant: 78.4, screening length: 8.12261 Bohr) occupying 0.708936 of unit cell:	Completed after 3 iterations at t[s]:  12182.46
	Linear fluid (dielectric constant: 78.4, screening length: 8.12261 Bohr) occupying 0.708938 of unit cell:	Completed after 0 iterations at t[s]:  12222.59
	FillingsUpdate:  mu: -0.145500000  nElectrons: 232.563236  magneticMoment: [ Abs: 0.26518  Tot: +0.12165 ]
	SubspaceRotationAdjust: set factor to 0.131
ElecMinimize: Iter:  15  G: -371.501820756086886  |grad|_K:  1.446e-07  alpha:  8.268e-01  linmin: -8.657e-05  t[s]:  12279.55
	Linear fluid (dielectric constant: 78.4, screening length: 8.12261 Bohr) occupying 0.708964 of unit cell:	Completed after 2 iterations at t[s]:  12328.60
	Linear fluid (dielectric constant: 78.4, screening length: 8.12261 Bohr) occupying 0.708961 of unit cell:	Completed after 0 iterations at t[s]:  12368.84
	FillingsUpdate:  mu: -0.145500000  nElectrons: 232.562844  magneticMoment: [ Abs: 0.25909  Tot: +0.12095 ]
	SubspaceRotationAdjust: set factor to 0.138
ElecMinimize: Iter:  16  G: -371.501824124480606  |grad|_K:  1.400e-07  alpha:  7.175e-01  linmin:  8.475e-05  t[s]:  12425.51
	Linear fluid (dielectric constant: 78.4, screening length: 8.12261 Bohr) occupying 0.708980 of unit cell:	Completed after 3 iterations at t[s]:  12475.38
	Linear fluid (dielectric constant: 78.4, screening length: 8.12261 Bohr) occupying 0.708974 of unit cell:	Completed after 2 iterations at t[s]:  12517.66
	FillingsUpdate:  mu: -0.145500000  nElectrons: 232.560713  magneticMoment: [ Abs: 0.25252  Tot: +0.11863 ]
	SubspaceRotationAdjust: set factor to 0.128
ElecMinimize: Iter:  17  G: -371.501826070871914  |grad|_K:  1.236e-07  alpha:  4.899e-01  linmin: -1.135e-05  t[s]:  12574.25
	Linear fluid (dielectric constant: 78.4, screening length: 8.12261 Bohr) occupying 0.708986 of unit cell:	Completed after 3 iterations at t[s]:  12624.54
	Linear fluid (dielectric constant: 78.4, screening length: 8.12261 Bohr) occupying 0.708986 of unit cell:	Completed after 0 iterations at t[s]:  12664.69
	FillingsUpdate:  mu: -0.145500000  nElectrons: 232.561116  magneticMoment: [ Abs: 0.24832  Tot: +0.11886 ]
	SubspaceRotationAdjust: set factor to 0.106
ElecMinimize: Iter:  18  G: -371.501827714717251  |grad|_K:  9.230e-08  alpha:  4.917e-01  linmin: -2.111e-05  t[s]:  12722.48
	Linear fluid (dielectric constant: 78.4, screening length: 8.12261 Bohr) occupying 0.708986 of unit cell:	Completed after 2 iterations at t[s]:  12771.63
	Linear fluid (dielectric constant: 78.4, screening length: 8.12261 Bohr) occupying 0.708987 of unit cell:	Completed after 2 iterations at t[s]:  12814.35
	FillingsUpdate:  mu: -0.145500000  nElectrons: 232.558914  magneticMoment: [ Abs: 0.24112  Tot: +0.11651 ]
	SubspaceRotationAdjust: set factor to 0.11
ElecMinimize: Iter:  19  G: -371.501829217630302  |grad|_K:  7.837e-08  alpha:  8.016e-01  linmin: -1.949e-05  t[s]:  12871.75
	Linear fluid (dielectric constant: 78.4, screening length: 8.12261 Bohr) occupying 0.708983 of unit cell:	Completed after 1 iterations at t[s]:  12920.43
	Linear fluid (dielectric constant: 78.4, screening length: 8.12261 Bohr) occupying 0.708983 of unit cell:	Completed after 0 iterations at t[s]:  12960.87
	FillingsUpdate:  mu: -0.145500000  nElectrons: 232.557985  magneticMoment: [ Abs: 0.23627  Tot: +0.11548 ]
	SubspaceRotationAdjust: set factor to 0.121
ElecMinimize: Iter:  20  G: -371.501830163718239  |grad|_K:  6.644e-08  alpha:  6.997e-01  linmin:  9.060e-06  t[s]:  13017.99
	Linear fluid (dielectric constant: 78.4, screening length: 8.12261 Bohr) occupying 0.708978 of unit cell:	Completed after 2 iterations at t[s]:  13067.03
	Linear fluid (dielectric constant: 78.4, screening length: 8.12261 Bohr) occupying 0.708978 of unit cell:	Completed after 0 iterations at t[s]:  13107.08
	FillingsUpdate:  mu: -0.145500000  nElectrons: 232.557283  magneticMoment: [ Abs: 0.23234  Tot: +0.11471 ]
	SubspaceRotationAdjust: set factor to 0.135
ElecMinimize: Iter:  21  G: -371.501830802102290  |grad|_K:  5.086e-08  alpha:  6.688e-01  linmin: -5.627e-05  t[s]:  13164.11
	Linear fluid (dielectric constant: 78.4, screening length: 8.12261 Bohr) occupying 0.708975 of unit cell:	Completed after 2 iterations at t[s]:  13213.08
	Linear fluid (dielectric constant: 78.4, screening length: 8.12261 Bohr) occupying 0.708975 of unit cell:	Completed after 0 iterations at t[s]:  13253.93
	FillingsUpdate:  mu: -0.145500000  nElectrons: 232.557052  magneticMoment: [ Abs: 0.22958  Tot: +0.11443 ]
	SubspaceRotationAdjust: set factor to 0.15
ElecMinimize: Iter:  22  G: -371.501831221793111  |grad|_K:  4.199e-08  alpha:  7.183e-01  linmin: -1.548e-04  t[s]:  13310.82
	Linear fluid (dielectric constant: 78.4, screening length: 8.12261 Bohr) occupying 0.708973 of unit cell:	Completed after 3 iterations at t[s]:  13360.50
	Linear fluid (dielectric constant: 78.4, screening length: 8.12261 Bohr) occupying 0.708973 of unit cell:	Completed after 0 iterations at t[s]:  13400.72
	FillingsUpdate:  mu: -0.145500000  nElectrons: 232.556358  magneticMoment: [ Abs: 0.22713  Tot: +0.11371 ]
	SubspaceRotationAdjust: set factor to 0.134
ElecMinimize: Iter:  23  G: -371.501831470467550  |grad|_K:  4.230e-08  alpha:  6.099e-01  linmin:  8.260e-05  t[s]:  13457.04
	Linear fluid (dielectric constant: 78.4, screening length: 8.12261 Bohr) occupying 0.708974 of unit cell:	Completed after 1 iterations at t[s]:  13505.35
	Linear fluid (dielectric constant: 78.4, screening length: 8.12261 Bohr) occupying 0.708974 of unit cell:	Completed after 0 iterations at t[s]:  13546.41
	FillingsUpdate:  mu: -0.145500000  nElectrons: 232.556692  magneticMoment: [ Abs: 0.22613  Tot: +0.11402 ]
	SubspaceRotationAdjust: set factor to 0.095
ElecMinimize: Iter:  24  G: -371.501831595191447  |grad|_K:  4.264e-08  alpha:  3.680e-01  linmin:  2.404e-04  t[s]:  13602.75
	Linear fluid (dielectric constant: 78.4, screening length: 8.12261 Bohr) occupying 0.708974 of unit cell:	Completed after 2 iterations at t[s]:  13651.53
	Linear fluid (dielectric constant: 78.4, screening length: 8.12261 Bohr) occupying 0.708974 of unit cell:	Completed after 0 iterations at t[s]:  13691.77
	FillingsUpdate:  mu: -0.145500000  nElectrons: 232.556442  magneticMoment: [ Abs: 0.22471  Tot: +0.11376 ]
	SubspaceRotationAdjust: set factor to 0.09
ElecMinimize: Iter:  25  G: -371.501831695646274  |grad|_K:  2.390e-08  alpha:  3.061e-01  linmin: -2.209e-04  t[s]:  13748.58
	Linear fluid (dielectric constant: 78.4, screening length: 8.12261 Bohr) occupying 0.708974 of unit cell:	Completed after 0 iterations at t[s]:  13795.24
	Linear fluid (dielectric constant: 78.4, screening length: 8.12261 Bohr) occupying 0.708975 of unit cell:	Completed after 0 iterations at t[s]:  13835.80
	FillingsUpdate:  mu: -0.145500000  nElectrons: 232.556425  magneticMoment: [ Abs: 0.22381  Tot: +0.11373 ]
	SubspaceRotationAdjust: set factor to 0.0997
ElecMinimize: Iter:  26  G: -371.501831777739653  |grad|_K:  1.930e-08  alpha:  6.074e-01  linmin: -1.561e-05  t[s]:  13892.77
	Linear fluid (dielectric constant: 78.4, screening length: 8.12261 Bohr) occupying 0.708975 of unit cell:	Completed after 0 iterations at t[s]:  13939.74
	Linear fluid (dielectric constant: 78.4, screening length: 8.12261 Bohr) occupying 0.708976 of unit cell:	Completed after 0 iterations at t[s]:  13979.63
	FillingsUpdate:  mu: -0.145500000  nElectrons: 232.556510  magneticMoment: [ Abs: 0.22307  Tot: +0.11380 ]
	SubspaceRotationAdjust: set factor to 0.111
ElecMinimize: Iter:  27  G: -371.501831838719966  |grad|_K:  1.423e-08  alpha:  7.472e-01  linmin:  3.309e-06  t[s]:  14036.55
ElecMinimize: Converged (|Delta G|<1.000000e-07 for 2 iters).
Setting wave functions to eigenvectors of Hamiltonian
Converging empty states (this may take a while): |deigs|: 7.639e-04
Single-point solvation energy estimate, DeltaG = -0.018027263538670

Computing DFT-D3 correction:
# coordination-number C 3.300 3.321 3.334 3.332 3.312 3.290 3.323 3.609 3.330 3.314 3.302 3.326 3.306 3.302 3.325 3.597 3.269 3.301 3.320 3.334 3.326 3.301 3.301 3.326 3.334 3.320 3.301 3.268 3.607 3.325 3.302 3.305 3.330 3.303 3.314 3.330 3.606 3.326 3.290 3.312 3.332 3.334 3.320 3.300 3.015
# coordination-number N 3.181 3.177 3.176 3.180
# coordination-number Ti 7.503
# coordination-number O 1.992 1.989 2.109
# coordination-number H 1.091 0.992 0.992
# diagonal-C6 C 24.28 24.08 23.93 23.95 24.16 24.37 24.05 20.17 23.97 24.14 24.26 24.02 24.22 24.27 24.03 20.31 24.56 24.28 24.08 23.93 24.02 24.27 24.27 24.02 23.93 24.08 24.28 24.57 20.19 24.03 24.26 24.23 23.98 24.26 24.15 23.98 20.20 24.02 24.37 24.16 23.95 23.93 24.08 24.28 25.64
# diagonal-C6 N 15.60 15.60 15.60 15.60
# diagonal-C6 Ti 321.59
# diagonal-C6 O 10.41 10.41 10.39
# diagonal-C6 H 3.06 3.09 3.09
EvdW_6 =   -0.044031
EvdW_8 =   -0.033439
Completed 1 of 22 configurations.

Computing DFT-D3 correction:
# coordination-number C 3.300 3.321 3.334 3.332 3.312 3.290 3.323 3.609 3.330 3.314 3.302 3.326 3.306 3.302 3.325 3.597 3.269 3.301 3.320 3.334 3.326 3.301 3.301 3.326 3.334 3.320 3.301 3.268 3.607 3.325 3.302 3.305 3.330 3.303 3.314 3.330 3.606 3.326 3.290 3.312 3.332 3.334 3.320 3.300 3.015
# coordination-number N 3.181 3.177 3.176 3.180
# coordination-number Ti 7.503
# coordination-number O 1.992 1.989 2.109
# coordination-number H 1.091 0.992 0.991
# diagonal-C6 C 24.28 24.08 23.93 23.95 24.16 24.37 24.05 20.17 23.97 24.14 24.26 24.02 24.22 24.27 24.03 20.31 24.56 24.28 24.08 23.93 24.02 24.27 24.27 24.02 23.93 24.08 24.28 24.57 20.19 24.03 24.26 24.23 23.98 24.26 24.15 23.98 20.20 24.02 24.37 24.16 23.95 23.93 24.08 24.28 25.64
# diagonal-C6 N 15.60 15.60 15.60 15.60
# diagonal-C6 Ti 321.59
# diagonal-C6 O 10.41 10.41 10.39
# diagonal-C6 H 3.06 3.09 3.09
EvdW_6 =   -0.044030
EvdW_8 =   -0.033438
Shifting auxilliary hamiltonian by 0.000010 to set nElectrons=232.556510

-------- Electronic minimization -----------
	Linear fluid (dielectric constant: 78.4, screening length: 8.12261 Bohr) occupying 0.708968 of unit cell:	Completed after 5 iterations at t[s]:  15409.92
	FillingsUpdate:  mu: -0.145500000  nElectrons: 232.556510  magneticMoment: [ Abs: 0.22221  Tot: +0.11382 ]
ElecMinimize: Iter:   0  G: -371.501782660637843  |grad|_K:  4.001e-07  alpha:  1.000e+00
	Linear fluid (dielectric constant: 78.4, screening length: 8.12261 Bohr) occupying 0.708968 of unit cell:	Completed after 3 iterations at t[s]:  15522.94
	Linear fluid (dielectric constant: 78.4, screening length: 8.12261 Bohr) occupying 0.708968 of unit cell:	Completed after 3 iterations at t[s]:  15565.73
	FillingsUpdate:  mu: -0.145500000  nElectrons: 232.555548  magneticMoment: [ Abs: 0.22126  Tot: +0.11286 ]
	SubspaceRotationAdjust: set factor to 0.116
ElecMinimize: Iter:   1  G: -371.501805657038631  |grad|_K:  1.742e-07  alpha:  6.589e-01  linmin:  5.382e-05  t[s]:  15622.60
	Linear fluid (dielectric constant: 78.4, screening length: 8.12261 Bohr) occupying 0.708970 of unit cell:	Completed after 3 iterations at t[s]:  15672.05
	Linear fluid (dielectric constant: 78.4, screening length: 8.12261 Bohr) occupying 0.708970 of unit cell:	Completed after 0 iterations at t[s]:  15711.88
	FillingsUpdate:  mu: -0.145500000  nElectrons: 232.557034  magneticMoment: [ Abs: 0.22249  Tot: +0.11433 ]
	SubspaceRotationAdjust: set factor to 0.103
ElecMinimize: Iter:   2  G: -371.501809514188665  |grad|_K:  1.571e-07  alpha:  5.792e-01  linmin:  7.953e-04  t[s]:  15768.10
	Linear fluid (dielectric constant: 78.4, screening length: 8.12261 Bohr) occupying 0.708965 of unit cell:	Completed after 3 iterations at t[s]:  15817.60
	Linear fluid (dielectric constant: 78.4, screening length: 8.12261 Bohr) occupying 0.708967 of unit cell:	Completed after 2 iterations at t[s]:  15859.48
	FillingsUpdate:  mu: -0.145500000  nElectrons: 232.555520  magneticMoment: [ Abs: 0.22107  Tot: +0.11282 ]
	SubspaceRotationAdjust: set factor to 0.0841
ElecMinimize: Iter:   3  G: -371.501811234077763  |grad|_K:  9.349e-08  alpha:  3.602e-01  linmin:  3.054e-05  t[s]:  15916.12
	Linear fluid (dielectric constant: 78.4, screening length: 8.12261 Bohr) occupying 0.708967 of unit cell:	Completed after 2 iterations at t[s]:  15964.91
	Linear fluid (dielectric constant: 78.4, screening length: 8.12261 Bohr) occupying 0.708967 of unit cell:	Completed after 1 iterations at t[s]:  16006.47
	FillingsUpdate:  mu: -0.145500000  nElectrons: 232.555799  magneticMoment: [ Abs: 0.22120  Tot: +0.11309 ]
	SubspaceRotationAdjust: set factor to 0.123
ElecMinimize: Iter:   4  G: -371.501812565143325  |grad|_K:  4.982e-08  alpha:  6.799e-01  linmin: -4.892e-04  t[s]:  16062.73
	Linear fluid (dielectric constant: 78.4, screening length: 8.12261 Bohr) occupying 0.708967 of unit cell:	Completed after 0 iterations at t[s]:  16110.23
	Linear fluid (dielectric constant: 78.4, screening length: 8.12261 Bohr) occupying 0.708966 of unit cell:	Completed after 1 iterations at t[s]:  16151.51
	FillingsUpdate:  mu: -0.145500000  nElectrons: 232.555879  magneticMoment: [ Abs: 0.22114  Tot: +0.11316 ]
	SubspaceRotationAdjust: set factor to 0.148
ElecMinimize: Iter:   5  G: -371.501813260418203  |grad|_K:  5.969e-08  alpha:  1.268e+00  linmin:  8.755e-05  t[s]:  16208.32
	Linear fluid (dielectric constant: 78.4, screening length: 8.12261 Bohr) occupying 0.708965 of unit cell:	Completed after 2 iterations at t[s]:  16257.36
	Linear fluid (dielectric constant: 78.4, screening length: 8.12261 Bohr) occupying 0.708965 of unit cell:	Completed after 1 iterations at t[s]:  16299.10
	FillingsUpdate:  mu: -0.145500000  nElectrons: 232.555262  magneticMoment: [ Abs: 0.22042  Tot: +0.11253 ]
	SubspaceRotationAdjust: set factor to 0.154
ElecMinimize: Iter:   6  G: -371.501813828907132  |grad|_K:  6.871e-08  alpha:  7.477e-01  linmin:  5.579e-05  t[s]:  16355.32
	Linear fluid (dielectric constant: 78.4, screening length: 8.12261 Bohr) occupying 0.708967 of unit cell:	Completed after 2 iterations at t[s]:  16404.12
	Linear fluid (dielectric constant: 78.4, screening length: 8.12261 Bohr) occupying 0.708966 of unit cell:	Completed after 0 iterations at t[s]:  16443.87
	FillingsUpdate:  mu: -0.145500000  nElectrons: 232.555669  magneticMoment: [ Abs: 0.22059  Tot: +0.11293 ]
	SubspaceRotationAdjust: set factor to 0.125
ElecMinimize: Iter:   7  G: -371.501814344939817  |grad|_K:  7.787e-08  alpha:  4.930e-01  linmin:  2.274e-04  t[s]:  16500.98
	Linear fluid (dielectric constant: 78.4, screening length: 8.12261 Bohr) occupying 0.708965 of unit cell:	Completed after 3 iterations at t[s]:  16550.35
	Linear fluid (dielectric constant: 78.4, screening length: 8.12261 Bohr) occupying 0.708966 of unit cell:	Completed after 2 iterations at t[s]:  16592.45
	FillingsUpdate:  mu: -0.145500000  nElectrons: 232.555076  magneticMoment: [ Abs: 0.21993  Tot: +0.11233 ]
	SubspaceRotationAdjust: set factor to 0.0825
ElecMinimize: Iter:   8  G: -371.501814501751653  |grad|_K:  4.110e-08  alpha:  2.086e-01  linmin:  5.482e-05  t[s]:  16649.29
	Linear fluid (dielectric constant: 78.4, screening length: 8.12261 Bohr) occupying 0.708966 of unit cell:	Completed after 0 iterations at t[s]:  16696.18
ElecMinimize: 	Predicted alpha/alphaT>3.000000, increasing alphaT to 6.258656e-01.
	Linear fluid (dielectric constant: 78.4, screening length: 8.12261 Bohr) occupying 0.708966 of unit cell:	Completed after 0 iterations at t[s]:  16736.19
	Linear fluid (dielectric constant: 78.4, screening length: 8.12261 Bohr) occupying 0.708966 of unit cell:	Completed after 0 iterations at t[s]:  16777.68
	FillingsUpdate:  mu: -0.145500000  nElectrons: 232.555146  magneticMoment: [ Abs: 0.21982  Tot: +0.11239 ]
	SubspaceRotationAdjust: set factor to 0.101
ElecMinimize: Iter:   9  G: -371.501814737986933  |grad|_K:  3.195e-08  alpha:  6.604e-01  linmin:  4.432e-07  t[s]:  16834.01
	Linear fluid (dielectric constant: 78.4, screening length: 8.12261 Bohr) occupying 0.708968 of unit cell:	Completed after 2 iterations at t[s]:  16883.04
	Linear fluid (dielectric constant: 78.4, screening length: 8.12261 Bohr) occupying 0.708967 of unit cell:	Completed after 0 iterations at t[s]:  16923.62
	FillingsUpdate:  mu: -0.145500000  nElectrons: 232.555325  magneticMoment: [ Abs: 0.21993  Tot: +0.11256 ]
	SubspaceRotationAdjust: set factor to 0.0844
ElecMinimize: Iter:  10  G: -371.501814772092985  |grad|_K:  4.177e-08  alpha:  2.660e-01  linmin:  6.870e-04  t[s]:  16980.23
	Linear fluid (dielectric constant: 78.4, screening length: 8.12261 Bohr) occupying 0.708967 of unit cell:	Completed after 2 iterations at t[s]:  17028.87
	Linear fluid (dielectric constant: 78.4, screening length: 8.12261 Bohr) occupying 0.708967 of unit cell:	Completed after 0 iterations at t[s]:  17068.79
	FillingsUpdate:  mu: -0.145500000  nElectrons: 232.555243  magneticMoment: [ Abs: 0.21981  Tot: +0.11248 ]
	SubspaceRotationAdjust: set factor to 0.138
ElecMinimize: Iter:  11  G: -371.501814789679372  |grad|_K:  1.983e-08  alpha:  1.258e-01  linmin: -9.143e-05  t[s]:  17125.62
ElecMinimize: Converged (|Delta G|<1.000000e-07 for 2 iters).
Setting wave functions to eigenvectors of Hamiltonian
Converging empty states (this may take a while): |deigs|: 1.998e-08

Computing DFT-D3 correction:
# coordination-number C 3.300 3.321 3.334 3.332 3.312 3.290 3.323 3.609 3.330 3.314 3.302 3.326 3.306 3.302 3.325 3.597 3.269 3.301 3.320 3.334 3.326 3.301 3.301 3.326 3.334 3.320 3.301 3.268 3.607 3.325 3.302 3.305 3.330 3.303 3.314 3.330 3.606 3.326 3.290 3.312 3.332 3.334 3.320 3.300 3.015
# coordination-number N 3.181 3.177 3.176 3.180
# coordination-number Ti 7.503
# coordination-number O 1.992 1.989 2.109
# coordination-number H 1.091 0.992 0.991
# diagonal-C6 C 24.28 24.08 23.93 23.95 24.16 24.37 24.05 20.17 23.97 24.14 24.26 24.02 24.22 24.27 24.03 20.31 24.56 24.28 24.08 23.93 24.02 24.27 24.27 24.02 23.93 24.08 24.28 24.57 20.19 24.03 24.26 24.23 23.98 24.26 24.15 23.98 20.20 24.02 24.37 24.16 23.95 23.93 24.08 24.28 25.64
# diagonal-C6 N 15.60 15.60 15.60 15.60
# diagonal-C6 Ti 321.59
# diagonal-C6 O 10.41 10.41 10.39
# diagonal-C6 H 3.06 3.09 3.09
EvdW_6 =   -0.044030
EvdW_8 =   -0.033438
Completed 2 of 22 configurations.

Computing DFT-D3 correction:
# coordination-number C 3.300 3.321 3.334 3.332 3.312 3.290 3.323 3.609 3.330 3.314 3.302 3.326 3.306 3.302 3.325 3.597 3.269 3.301 3.320 3.334 3.326 3.301 3.301 3.326 3.334 3.320 3.301 3.268 3.607 3.325 3.302 3.305 3.330 3.303 3.314 3.330 3.606 3.326 3.290 3.312 3.332 3.334 3.320 3.300 3.016
# coordination-number N 3.182 3.177 3.176 3.180
# coordination-number Ti 7.503
# coordination-number O 1.992 1.989 2.109
# coordination-number H 1.091 0.992 0.992
# diagonal-C6 C 24.28 24.08 23.93 23.95 24.16 24.37 24.05 20.17 23.97 24.14 24.26 24.02 24.22 24.27 24.03 20.31 24.56 24.28 24.08 23.93 24.02 24.27 24.27 24.02 23.93 24.08 24.28 24.57 20.19 24.03 24.26 24.23 23.98 24.26 24.15 23.98 20.20 24.02 24.37 24.16 23.95 23.93 24.08 24.28 25.64
# diagonal-C6 N 15.60 15.60 15.60 15.60
# diagonal-C6 Ti 321.59
# diagonal-C6 O 10.41 10.41 10.39
# diagonal-C6 H 3.06 3.09 3.09
EvdW_6 =   -0.044031
EvdW_8 =   -0.033441
Shifting auxilliary hamiltonian by -0.000036 to set nElectrons=232.555243

-------- Electronic minimization -----------
	Linear fluid (dielectric constant: 78.4, screening length: 8.12261 Bohr) occupying 0.708979 of unit cell:	Completed after 7 iterations at t[s]:  17322.62
	FillingsUpdate:  mu: -0.145500000  nElectrons: 232.555243  magneticMoment: [ Abs: 0.21901  Tot: +0.11241 ]
ElecMinimize: Iter:   0  G: -371.501742300438934  |grad|_K:  6.467e-07  alpha:  1.000e+00
	Linear fluid (dielectric constant: 78.4, screening length: 8.12261 Bohr) occupying 0.708986 of unit cell:	Completed after 9 iterations at t[s]:  17439.78
	Linear fluid (dielectric constant: 78.4, screening length: 8.12261 Bohr) occupying 0.708983 of unit cell:	Completed after 4 iterations at t[s]:  17483.27
	FillingsUpdate:  mu: -0.145500000  nElectrons: 232.559219  magneticMoment: [ Abs: 0.22258  Tot: +0.11637 ]
	SubspaceRotationAdjust: set factor to 0.12
ElecMinimize: Iter:   1  G: -371.501796335546089  |grad|_K:  3.666e-07  alpha:  5.919e-01  linmin:  5.132e-05  t[s]:  17539.79
[...]
disp Ti   0.000000000000000   0.000000000000000   0.000000000000000
disp O   0.001155349943838  -0.000999863492474  -0.001338954150625
disp O   0.001450300436099  -0.001182575241331   0.000097971335550
disp O  -0.000592848939991   0.000383824837909   0.000409983195025
disp H  -0.001143643948122   0.000550411743456  -0.006015687740401
disp H   0.004810452086871   0.000354035402549  -0.002787825171040
disp H  -0.000180839994958  -0.004980242520116  -0.002798591020144

Real mode 14:
Frequency: 0.007058 Eh [ 1549 cm^-1 ]
Degeneracy: 1 of 1
IR intensity: 2.3266 e^2/amu [ 2268.2 km/mol ]
Displacements:
disp C   0.000000000000000   0.000000000000000   0.000000000000000
disp C   0.000000000000000   0.000000000000000   0.000000000000000
disp C   0.000000000000000   0.000000000000000   0.000000000000000
disp C   0.000000000000000   0.000000000000000   0.000000000000000
disp C   0.000000000000000   0.000000000000000   0.000000000000000
disp C   0.000000000000000   0.000000000000000   0.000000000000000
disp C   0.000000000000000   0.000000000000000   0.000000000000000
disp C   0.000000000000000   0.000000000000000   0.000000000000000
disp C   0.000000000000000   0.000000000000000   0.000000000000000
disp C   0.000000000000000   0.000000000000000   0.000000000000000
disp C   0.000000000000000   0.000000000000000   0.000000000000000
disp C   0.000000000000000   0.000000000000000   0.000000000000000
disp C   0.000000000000000   0.000000000000000   0.000000000000000
disp C   0.000000000000000   0.000000000000000   0.000000000000000
disp C   0.000000000000000   0.000000000000000   0.000000000000000
disp C   0.000000000000000   0.000000000000000   0.000000000000000
disp C   0.000000000000000   0.000000000000000   0.000000000000000
disp C   0.000000000000000   0.000000000000000   0.000000000000000
disp C   0.000000000000000   0.000000000000000   0.000000000000000
disp C   0.000000000000000   0.000000000000000   0.000000000000000
disp C   0.000000000000000   0.000000000000000   0.000000000000000
disp C   0.000000000000000   0.000000000000000   0.000000000000000
disp C   0.000000000000000   0.000000000000000   0.000000000000000
disp C   0.000000000000000   0.000000000000000   0.000000000000000
disp C   0.000000000000000   0.000000000000000   0.000000000000000
disp C   0.000000000000000   0.000000000000000   0.000000000000000
disp C   0.000000000000000   0.000000000000000   0.000000000000000
disp C   0.000000000000000   0.000000000000000   0.000000000000000
disp C   0.000000000000000   0.000000000000000   0.000000000000000
disp C   0.000000000000000   0.000000000000000   0.000000000000000
disp C   0.000000000000000   0.000000000000000   0.000000000000000
disp C   0.000000000000000   0.000000000000000   0.000000000000000
disp C   0.000000000000000   0.000000000000000   0.000000000000000
disp C   0.000000000000000   0.000000000000000   0.000000000000000
disp C   0.000000000000000   0.000000000000000   0.000000000000000
disp C   0.000000000000000   0.000000000000000   0.000000000000000
disp C   0.000000000000000   0.000000000000000   0.000000000000000
disp C   0.000000000000000   0.000000000000000   0.000000000000000
disp C   0.000000000000000   0.000000000000000   0.000000000000000
disp C   0.000000000000000   0.000000000000000   0.000000000000000
disp C   0.000000000000000   0.000000000000000   0.000000000000000
disp C   0.000000000000000   0.000000000000000   0.000000000000000
disp C   0.000000000000000   0.000000000000000   0.000000000000000
disp C   0.000000000000000   0.000000000000000   0.000000000000000
disp C  -0.001150651557639   0.001021430436824   0.000637054528973
disp N   0.000000000000000   0.000000000000000   0.000000000000000
disp N   0.000000000000000   0.000000000000000   0.000000000000000
disp N   0.000000000000000   0.000000000000000   0.000000000000000
disp N   0.000000000000000   0.000000000000000   0.000000000000000
disp Ti   0.000000000000000   0.000000000000000   0.000000000000000
disp O   0.000343864313193  -0.000238198651725   0.000001878692608
disp O   0.000541116558180  -0.000460684571192   0.000023480324892
disp O   0.001026152488278  -0.000654715820458  -0.000764800792224
disp H   0.000158018489987  -0.002098690012299  -0.008150580372753
disp H  -0.012817937543608   0.000110306772278   0.006046358566923
disp H  -0.000831582851795   0.012716766468675   0.005785064969678

Real mode 15:
Frequency: 0.010144 Eh [ 2226 cm^-1 ]
Degeneracy: 1 of 1
IR intensity: 1.1350 e^2/amu [ 1106.5 km/mol ]
Displacements:
disp C   0.000000000000000   0.000000000000000   0.000000000000000
disp C   0.000000000000000   0.000000000000000   0.000000000000000
disp C   0.000000000000000   0.000000000000000   0.000000000000000
disp C   0.000000000000000   0.000000000000000   0.000000000000000
disp C   0.000000000000000   0.000000000000000   0.000000000000000
disp C   0.000000000000000   0.000000000000000   0.000000000000000
disp C   0.000000000000000   0.000000000000000   0.000000000000000
disp C   0.000000000000000   0.000000000000000   0.000000000000000
disp C   0.000000000000000   0.000000000000000   0.000000000000000
disp C   0.000000000000000   0.000000000000000   0.000000000000000
disp C   0.000000000000000   0.000000000000000   0.000000000000000
disp C   0.000000000000000   0.000000000000000   0.000000000000000
disp C   0.000000000000000   0.000000000000000   0.000000000000000
disp C   0.000000000000000   0.000000000000000   0.000000000000000
disp C   0.000000000000000   0.000000000000000   0.000000000000000
disp C   0.000000000000000   0.000000000000000   0.000000000000000
disp C   0.000000000000000   0.000000000000000   0.000000000000000
disp C   0.000000000000000   0.000000000000000   0.000000000000000
disp C   0.000000000000000   0.000000000000000   0.000000000000000
disp C   0.000000000000000   0.000000000000000   0.000000000000000
disp C   0.000000000000000   0.000000000000000   0.000000000000000
disp C   0.000000000000000   0.000000000000000   0.000000000000000
disp C   0.000000000000000   0.000000000000000   0.000000000000000
disp C   0.000000000000000   0.000000000000000   0.000000000000000
disp C   0.000000000000000   0.000000000000000   0.000000000000000
disp C   0.000000000000000   0.000000000000000   0.000000000000000
disp C   0.000000000000000   0.000000000000000   0.000000000000000
disp C   0.000000000000000   0.000000000000000   0.000000000000000
disp C   0.000000000000000   0.000000000000000   0.000000000000000
disp C   0.000000000000000   0.000000000000000   0.000000000000000
disp C   0.000000000000000   0.000000000000000   0.000000000000000
disp C   0.000000000000000   0.000000000000000   0.000000000000000
disp C   0.000000000000000   0.000000000000000   0.000000000000000
disp C   0.000000000000000   0.000000000000000   0.000000000000000
disp C   0.000000000000000   0.000000000000000   0.000000000000000
disp C   0.000000000000000   0.000000000000000   0.000000000000000
disp C   0.000000000000000   0.000000000000000   0.000000000000000
disp C   0.000000000000000   0.000000000000000   0.000000000000000
disp C   0.000000000000000   0.000000000000000   0.000000000000000
disp C   0.000000000000000   0.000000000000000   0.000000000000000
disp C   0.000000000000000   0.000000000000000   0.000000000000000
disp C   0.000000000000000   0.000000000000000   0.000000000000000
disp C   0.000000000000000   0.000000000000000   0.000000000000000
disp C   0.000000000000000   0.000000000000000   0.000000000000000
disp C   0.000251710474830  -0.000258461541957  -0.000794868918187
disp N   0.000000000000000   0.000000000000000   0.000000000000000
disp N   0.000000000000000   0.000000000000000   0.000000000000000
disp N   0.000000000000000   0.000000000000000   0.000000000000000
disp N   0.000000000000000   0.000000000000000   0.000000000000000
disp Ti   0.000000000000000   0.000000000000000   0.000000000000000
disp O   0.001170672596018  -0.000976630310511   0.000511831464790
disp O  -0.000209558592877   0.000163397578761   0.000125744029757
disp O  -0.000100765675444   0.000077383533186  -0.000138416170346
disp H  -0.017414509525047   0.013549395560177  -0.001633120299067
disp H  -0.000748819875285   0.000782162107501   0.000457406224827
disp H  -0.000815130737211   0.000675341774821   0.000416150019432

Real mode 16:
Frequency: 0.016945 Eh [ 3719 cm^-1 ]
Degeneracy: 1 of 1
IR intensity: 0.1609 e^2/amu [ 156.9 km/mol ]
Displacements:
disp C   0.000000000000000   0.000000000000000   0.000000000000000
disp C   0.000000000000000   0.000000000000000   0.000000000000000
disp C   0.000000000000000   0.000000000000000   0.000000000000000
disp C   0.000000000000000   0.000000000000000   0.000000000000000
disp C   0.000000000000000   0.000000000000000   0.000000000000000
disp C   0.000000000000000   0.000000000000000   0.000000000000000
disp C   0.000000000000000   0.000000000000000   0.000000000000000
disp C   0.000000000000000   0.000000000000000   0.000000000000000
disp C   0.000000000000000   0.000000000000000   0.000000000000000
disp C   0.000000000000000   0.000000000000000   0.000000000000000
disp C   0.000000000000000   0.000000000000000   0.000000000000000
disp C   0.000000000000000   0.000000000000000   0.000000000000000
disp C   0.000000000000000   0.000000000000000   0.000000000000000
disp C   0.000000000000000   0.000000000000000   0.000000000000000
disp C   0.000000000000000   0.000000000000000   0.000000000000000
disp C   0.000000000000000   0.000000000000000   0.000000000000000
disp C   0.000000000000000   0.000000000000000   0.000000000000000
disp C   0.000000000000000   0.000000000000000   0.000000000000000
disp C   0.000000000000000   0.000000000000000   0.000000000000000
disp C   0.000000000000000   0.000000000000000   0.000000000000000
disp C   0.000000000000000   0.000000000000000   0.000000000000000
disp C   0.000000000000000   0.000000000000000   0.000000000000000
disp C   0.000000000000000   0.000000000000000   0.000000000000000
disp C   0.000000000000000   0.000000000000000   0.000000000000000
disp C   0.000000000000000   0.000000000000000   0.000000000000000
disp C   0.000000000000000   0.000000000000000   0.000000000000000
disp C   0.000000000000000   0.000000000000000   0.000000000000000
disp C   0.000000000000000   0.000000000000000   0.000000000000000
disp C   0.000000000000000   0.000000000000000   0.000000000000000
disp C   0.000000000000000   0.000000000000000   0.000000000000000
disp C   0.000000000000000   0.000000000000000   0.000000000000000
disp C   0.000000000000000   0.000000000000000   0.000000000000000
disp C   0.000000000000000   0.000000000000000   0.000000000000000
disp C   0.000000000000000   0.000000000000000   0.000000000000000
disp C   0.000000000000000   0.000000000000000   0.000000000000000
disp C   0.000000000000000   0.000000000000000   0.000000000000000
disp C   0.000000000000000   0.000000000000000   0.000000000000000
disp C   0.000000000000000   0.000000000000000   0.000000000000000
disp C   0.000000000000000   0.000000000000000   0.000000000000000
disp C   0.000000000000000   0.000000000000000   0.000000000000000
disp C   0.000000000000000   0.000000000000000   0.000000000000000
disp C   0.000000000000000   0.000000000000000   0.000000000000000
disp C   0.000000000000000   0.000000000000000   0.000000000000000
disp C   0.000000000000000   0.000000000000000   0.000000000000000
disp C  -0.000003116067611   0.000003546655351   0.000009224761066
disp N   0.000000000000000   0.000000000000000   0.000000000000000
disp N   0.000000000000000   0.000000000000000   0.000000000000000
disp N   0.000000000000000   0.000000000000000   0.000000000000000
disp N   0.000000000000000   0.000000000000000   0.000000000000000
disp Ti   0.000000000000000   0.000000000000000   0.000000000000000
disp O   0.000035596590167  -0.000026501625084   0.000002720792518
disp O   0.000001383700386   0.000003314110277   0.000007177111723
disp O  -0.000248246779005   0.001020618178345   0.000696590234609
disp H  -0.000630670698249   0.000646344030792   0.000029530977185
disp H  -0.004228554726805  -0.019063523164691  -0.006882620304021
disp H   0.008136320892202   0.003249013161135  -0.003573283761104

Real mode 17:
Frequency: 0.017275 Eh [ 3792 cm^-1 ]
Degeneracy: 1 of 1
IR intensity: 0.3996 e^2/amu [ 389.5 km/mol ]
Displacements:
disp C   0.000000000000000   0.000000000000000   0.000000000000000
disp C   0.000000000000000   0.000000000000000   0.000000000000000
disp C   0.000000000000000   0.000000000000000   0.000000000000000
disp C   0.000000000000000   0.000000000000000   0.000000000000000
disp C   0.000000000000000   0.000000000000000   0.000000000000000
disp C   0.000000000000000   0.000000000000000   0.000000000000000
disp C   0.000000000000000   0.000000000000000   0.000000000000000
disp C   0.000000000000000   0.000000000000000   0.000000000000000
disp C   0.000000000000000   0.000000000000000   0.000000000000000
disp C   0.000000000000000   0.000000000000000   0.000000000000000
disp C   0.000000000000000   0.000000000000000   0.000000000000000
disp C   0.000000000000000   0.000000000000000   0.000000000000000
disp C   0.000000000000000   0.000000000000000   0.000000000000000
disp C   0.000000000000000   0.000000000000000   0.000000000000000
disp C   0.000000000000000   0.000000000000000   0.000000000000000
disp C   0.000000000000000   0.000000000000000   0.000000000000000
disp C   0.000000000000000   0.000000000000000   0.000000000000000
disp C   0.000000000000000   0.000000000000000   0.000000000000000
disp C   0.000000000000000   0.000000000000000   0.000000000000000
disp C   0.000000000000000   0.000000000000000   0.000000000000000
disp C   0.000000000000000   0.000000000000000   0.000000000000000
disp C   0.000000000000000   0.000000000000000   0.000000000000000
disp C   0.000000000000000   0.000000000000000   0.000000000000000
disp C   0.000000000000000   0.000000000000000   0.000000000000000
disp C   0.000000000000000   0.000000000000000   0.000000000000000
disp C   0.000000000000000   0.000000000000000   0.000000000000000
disp C   0.000000000000000   0.000000000000000   0.000000000000000
disp C   0.000000000000000   0.000000000000000   0.000000000000000
disp C   0.000000000000000   0.000000000000000   0.000000000000000
disp C   0.000000000000000   0.000000000000000   0.000000000000000
disp C   0.000000000000000   0.000000000000000   0.000000000000000
disp C   0.000000000000000   0.000000000000000   0.000000000000000
disp C   0.000000000000000   0.000000000000000   0.000000000000000
disp C   0.000000000000000   0.000000000000000   0.000000000000000
disp C   0.000000000000000   0.000000000000000   0.000000000000000
disp C   0.000000000000000   0.000000000000000   0.000000000000000
disp C   0.000000000000000   0.000000000000000   0.000000000000000
disp C   0.000000000000000   0.000000000000000   0.000000000000000
disp C   0.000000000000000   0.000000000000000   0.000000000000000
disp C   0.000000000000000   0.000000000000000   0.000000000000000
disp C   0.000000000000000   0.000000000000000   0.000000000000000
disp C   0.000000000000000   0.000000000000000   0.000000000000000
disp C   0.000000000000000   0.000000000000000   0.000000000000000
disp C   0.000000000000000   0.000000000000000   0.000000000000000
disp C  -0.000007477655889  -0.000003236251041   0.000001891067855
disp N   0.000000000000000   0.000000000000000   0.000000000000000
disp N   0.000000000000000   0.000000000000000   0.000000000000000
disp N   0.000000000000000   0.000000000000000   0.000000000000000
disp N   0.000000000000000   0.000000000000000   0.000000000000000
disp Ti   0.000000000000000   0.000000000000000   0.000000000000000
disp O  -0.000007762822410   0.000006150593123   0.000007168293221
disp O  -0.000001785705487   0.000001183037379   0.000009904702573
disp O   0.001191893613265   0.000918882034669  -0.000346046932881
disp H   0.000206114259479  -0.000236081664967   0.000013480575288
disp H  -0.001520471936964  -0.008309203211150  -0.003399074170144
disp H  -0.017714994735550  -0.006032674361451   0.008554497631271

Vibrational free energy components at T = 298 K:
	ZPE:          0.045601
	Evib:         0.049028
	TSvib:        0.005722
	Avib:         0.043306


Dumping 'jdft.n_up' ... done
Dumping 'jdft.n_dn' ... done
Dumping 'jdft.tau_up' ... done
Dumping 'jdft.tau_dn' ... done
Dumping 'jdft.eigenvals' ... done
Dumping 'jdft.eigStats' ... 
	eMin: -2.285126 at state 0 ( [ +0.000000 +0.000000 +0.000000 ] spin 1 )
	HOMO: -0.150988 at state 13 ( [ +0.333333 +0.333333 +0.000000 ] spin -1 )
	mu  : -0.145500
	LUMO: -0.144016 at state 0 ( [ +0.000000 +0.000000 +0.000000 ] spin 1 )
	eMax: +0.017824 at state 0 ( [ +0.000000 +0.000000 +0.000000 ] spin 1 )
	HOMO-LUMO gap: +0.006972
	Optical gap  : +0.011107 at state 8 ( [ -0.333333 -0.333333 +0.000000 ] spin 1 )
Dumping 'jdft.kPts' ... done
Dumping 'jdft.dosUp' ... done.
Dumping 'jdft.dosDn' ... done.
End date and time: Thu Nov 10 02:49:48 2022  (Duration: 0-13:40:55.47)
Done!

PROFILER:             augmentDensityGrid     0.653942 +/-     0.750262 s, 3140 calls,   2053.379111 s total
PROFILER:         augmentDensityGridGrad     0.499570 +/-     0.594842 s, 1720 calls,    859.259653 s total
PROFILER:        augmentDensitySpherical     0.000513 +/-     0.000725 s, 3140 calls,      1.611255 s total
PROFILER:    augmentDensitySphericalGrad     0.000602 +/-     0.001342 s, 2340 calls,      1.409750 s total
PROFILER:                 augmentOverlap     1.505369 +/-     2.174869 s, 7020 calls,  10567.693711 s total
PROFILER:        ColumnBundle::randomize     0.005545 +/-     0.000000 s,    1 calls,      0.005545 s total
PROFILER:                     diagouterI    16.583714 +/-     2.794733 s,  631 calls,  10464.323765 s total
PROFILER:              EdensityAndVscloc     7.892047 +/-     4.332274 s,  629 calls,   4964.097407 s total
PROFILER:                     EnlAndGrad     0.001596 +/-     0.002424 s, 3645 calls,      5.816121 s total
PROFILER:            ExCorrCommunication     0.114078 +/-     0.180733 s, 4018 calls,    458.365334 s total
PROFILER:               ExCorrFunctional     0.025179 +/-     0.005069 s,  696 calls,     17.524810 s total
PROFILER:                    ExCorrTotal     0.935177 +/-     0.277330 s,  696 calls,    650.883039 s total
PROFILER:                   Idag_DiagV_I    27.465599 +/-    11.661744 s,  446 calls,  12249.657126 s total
PROFILER:                    initWeights     2.106217 +/-     0.000000 s,    1 calls,      2.106217 s total
PROFILER:                    inv(matrix)     0.002611 +/-     0.002765 s,  580 calls,      1.514637 s total
PROFILER:            matrix::diagonalize     0.009826 +/-     0.005916 s, 1048 calls,     10.297413 s total
PROFILER:                    matrix::set     0.000003 +/-     0.000003 s, 67922 calls,      0.187533 s total
PROFILER:            orthoMatrix(matrix)     0.002211 +/-     0.001052 s,  683 calls,      1.510118 s total
PROFILER:     RadialFunctionR::transform     0.013442 +/-     0.133373 s,  151 calls,      2.029743 s total
PROFILER:                    reduceKmesh     0.000000 +/-     0.000000 s,    1 calls,      0.000000 s total
PROFILER:   VanDerWaalsD3::energyAndGrad     0.038760 +/-     0.002358 s,   45 calls,      1.744178 s total
PROFILER:               WavefunctionDrag    29.545699 +/-     1.993305 s,   22 calls,    650.005369 s total
PROFILER:                            Y*M     0.679840 +/-     0.857906 s, 12082 calls,   8213.830020 s total
PROFILER:                          Y1^Y2     0.722916 +/-     0.896145 s, 9030 calls,   6527.932351 s total

MEMUSAGE:                   ColumnBundle     1.365987 GB
MEMUSAGE:        complexScalarFieldTilde     0.074158 GB
MEMUSAGE:                    IndexArrays     0.023178 GB
MEMUSAGE:                         matrix     0.020862 GB
MEMUSAGE:                           misc     0.051230 GB
MEMUSAGE:                    ScalarField     0.395508 GB
MEMUSAGE:               ScalarFieldTilde     0.262436 GB
MEMUSAGE:                          Total     1.683400 GB
