
*************** JDFTx 1.7.0 (git hash 5f12716a) ***************

Start date and time: Wed Sep 21 23:27:25 2022
Executable /home/nisi6161/jdftx_alpine/build/jdftx with command-line: -i in
Running on hosts (process indices):  c3cpu-a2-u1-1.rc.int.colorado.edu (0-17)
Divided in process groups (process indices):  0 (0)  1 (1)  2 (2)  3 (3)  4 (4)  5 (5)  6 (6)  7 (7)  8 (8)  9 (9)  10 (10)  11 (11)  12 (12)  13 (13)  14 (14)  15 (15)  16 (16)  17 (17)
Resource initialization completed at t[s]:      0.00
Run totals: 18 processes, 64 threads, 0 GPUs


Input parsed successfully to the following command list (including defaults):

basis kpoint-dependent
converge-empty-states yes
coords-type Cartesian
core-overlap-check none
coulomb-interaction Periodic
davidson-band-ratio 1.1
density-of-states Etol 1.000000e-06 Esigma 1.000000e-03 \
		Complete \
	Total \
	OrthoOrbital C 1   s \
	OrthoOrbital C 1   p \
	OrthoOrbital C 1   px \
	OrthoOrbital C 1   py \
	OrthoOrbital C 1   pz \
	OrthoOrbital C 2   s \
	OrthoOrbital C 2   p \
	OrthoOrbital C 2   px \
	OrthoOrbital C 2   py \
	OrthoOrbital C 2   pz \
	OrthoOrbital C 3   s \
	OrthoOrbital C 3   p \
	OrthoOrbital C 3   px \
	OrthoOrbital C 3   py \
	OrthoOrbital C 3   pz \
	OrthoOrbital C 4   s \
	OrthoOrbital C 4   p \
	OrthoOrbital C 4   px \
	OrthoOrbital C 4   py \
	OrthoOrbital C 4   pz \
	OrthoOrbital C 5   s \
	OrthoOrbital C 5   p \
	OrthoOrbital C 5   px \
	OrthoOrbital C 5   py \
	OrthoOrbital C 5   pz \
	OrthoOrbital C 6   s \
	OrthoOrbital C 6   p \
	OrthoOrbital C 6   px \
	OrthoOrbital C 6   py \
	OrthoOrbital C 6   pz \
	OrthoOrbital C 7   s \
	OrthoOrbital C 7   p \
	OrthoOrbital C 7   px \
	OrthoOrbital C 7   py \
	OrthoOrbital C 7   pz \
	OrthoOrbital C 8   s \
	OrthoOrbital C 8   p \
	OrthoOrbital C 8   px \
	OrthoOrbital C 8   py \
	OrthoOrbital C 8   pz \
	OrthoOrbital C 9   s \
	OrthoOrbital C 9   p \
	OrthoOrbital C 9   px \
	OrthoOrbital C 9   py \
	OrthoOrbital C 9   pz \
	OrthoOrbital C 10   s \
	OrthoOrbital C 10   p \
	OrthoOrbital C 10   px \
	OrthoOrbital C 10   py \
	OrthoOrbital C 10   pz \
	OrthoOrbital C 11   s \
	OrthoOrbital C 11   p \
	OrthoOrbital C 11   px \
	OrthoOrbital C 11   py \
	OrthoOrbital C 11   pz \
	OrthoOrbital C 12   s \
	OrthoOrbital C 12   p \
	OrthoOrbital C 12   px \
	OrthoOrbital C 12   py \
	OrthoOrbital C 12   pz \
	OrthoOrbital C 13   s \
	OrthoOrbital C 13   p \
	OrthoOrbital C 13   px \
	OrthoOrbital C 13   py \
	OrthoOrbital C 13   pz \
	OrthoOrbital C 14   s \
	OrthoOrbital C 14   p \
	OrthoOrbital C 14   px \
	OrthoOrbital C 14   py \
	OrthoOrbital C 14   pz \
	OrthoOrbital C 15   s \
	OrthoOrbital C 15   p \
	OrthoOrbital C 15   px \
	OrthoOrbital C 15   py \
	OrthoOrbital C 15   pz \
	OrthoOrbital C 16   s \
	OrthoOrbital C 16   p \
	OrthoOrbital C 16   px \
	OrthoOrbital C 16   py \
	OrthoOrbital C 16   pz \
	OrthoOrbital C 17   s \
	OrthoOrbital C 17   p \
	OrthoOrbital C 17   px \
	OrthoOrbital C 17   py \
	OrthoOrbital C 17   pz \
	OrthoOrbital C 18   s \
	OrthoOrbital C 18   p \
	OrthoOrbital C 18   px \
	OrthoOrbital C 18   py \
	OrthoOrbital C 18   pz \
	OrthoOrbital C 19   s \
	OrthoOrbital C 19   p \
	OrthoOrbital C 19   px \
	OrthoOrbital C 19   py \
	OrthoOrbital C 19   pz \
	OrthoOrbital C 20   s \
	OrthoOrbital C 20   p \
	OrthoOrbital C 20   px \
	OrthoOrbital C 20   py \
	OrthoOrbital C 20   pz \
	OrthoOrbital C 21   s \
	OrthoOrbital C 21   p \
	OrthoOrbital C 21   px \
	OrthoOrbital C 21   py \
	OrthoOrbital C 21   pz \
	OrthoOrbital C 22   s \
	OrthoOrbital C 22   p \
	OrthoOrbital C 22   px \
	OrthoOrbital C 22   py \
	OrthoOrbital C 22   pz \
	OrthoOrbital C 23   s \
	OrthoOrbital C 23   p \
	OrthoOrbital C 23   px \
	OrthoOrbital C 23   py \
	OrthoOrbital C 23   pz \
	OrthoOrbital C 24   s \
	OrthoOrbital C 24   p \
	OrthoOrbital C 24   px \
	OrthoOrbital C 24   py \
	OrthoOrbital C 24   pz \
	OrthoOrbital C 25   s \
	OrthoOrbital C 25   p \
	OrthoOrbital C 25   px \
	OrthoOrbital C 25   py \
	OrthoOrbital C 25   pz \
	OrthoOrbital C 26   s \
	OrthoOrbital C 26   p \
	OrthoOrbital C 26   px \
	OrthoOrbital C 26   py \
	OrthoOrbital C 26   pz \
	OrthoOrbital C 27   s \
	OrthoOrbital C 27   p \
	OrthoOrbital C 27   px \
	OrthoOrbital C 27   py \
	OrthoOrbital C 27   pz \
	OrthoOrbital C 28   s \
	OrthoOrbital C 28   p \
	OrthoOrbital C 28   px \
	OrthoOrbital C 28   py \
	OrthoOrbital C 28   pz \
	OrthoOrbital C 29   s \
	OrthoOrbital C 29   p \
	OrthoOrbital C 29   px \
	OrthoOrbital C 29   py \
	OrthoOrbital C 29   pz \
	OrthoOrbital C 30   s \
	OrthoOrbital C 30   p \
	OrthoOrbital C 30   px \
	OrthoOrbital C 30   py \
	OrthoOrbital C 30   pz \
	OrthoOrbital C 31   s \
	OrthoOrbital C 31   p \
	OrthoOrbital C 31   px \
	OrthoOrbital C 31   py \
	OrthoOrbital C 31   pz \
	OrthoOrbital C 32   s \
	OrthoOrbital C 32   p \
	OrthoOrbital C 32   px \
	OrthoOrbital C 32   py \
	OrthoOrbital C 32   pz \
	OrthoOrbital C 33   s \
	OrthoOrbital C 33   p \
	OrthoOrbital C 33   px \
	OrthoOrbital C 33   py \
	OrthoOrbital C 33   pz \
	OrthoOrbital C 34   s \
	OrthoOrbital C 34   p \
	OrthoOrbital C 34   px \
	OrthoOrbital C 34   py \
	OrthoOrbital C 34   pz \
	OrthoOrbital C 35   s \
	OrthoOrbital C 35   p \
	OrthoOrbital C 35   px \
	OrthoOrbital C 35   py \
	OrthoOrbital C 35   pz \
	OrthoOrbital C 36   s \
	OrthoOrbital C 36   p \
	OrthoOrbital C 36   px \
	OrthoOrbital C 36   py \
	OrthoOrbital C 36   pz \
	OrthoOrbital C 37   s \
	OrthoOrbital C 37   p \
	OrthoOrbital C 37   px \
	OrthoOrbital C 37   py \
	OrthoOrbital C 37   pz \
	OrthoOrbital C 38   s \
	OrthoOrbital C 38   p \
	OrthoOrbital C 38   px \
	OrthoOrbital C 38   py \
	OrthoOrbital C 38   pz \
	OrthoOrbital C 39   s \
	OrthoOrbital C 39   p \
	OrthoOrbital C 39   px \
	OrthoOrbital C 39   py \
	OrthoOrbital C 39   pz \
	OrthoOrbital C 40   s \
	OrthoOrbital C 40   p \
	OrthoOrbital C 40   px \
	OrthoOrbital C 40   py \
	OrthoOrbital C 40   pz \
	OrthoOrbital C 41   s \
	OrthoOrbital C 41   p \
	OrthoOrbital C 41   px \
	OrthoOrbital C 41   py \
	OrthoOrbital C 41   pz \
	OrthoOrbital C 42   s \
	OrthoOrbital C 42   p \
	OrthoOrbital C 42   px \
	OrthoOrbital C 42   py \
	OrthoOrbital C 42   pz \
	OrthoOrbital C 43   s \
	OrthoOrbital C 43   p \
	OrthoOrbital C 43   px \
	OrthoOrbital C 43   py \
	OrthoOrbital C 43   pz \
	OrthoOrbital C 44   s \
	OrthoOrbital C 44   p \
	OrthoOrbital C 44   px \
	OrthoOrbital C 44   py \
	OrthoOrbital C 44   pz \
	OrthoOrbital C 45   s \
	OrthoOrbital C 45   p \
	OrthoOrbital C 45   px \
	OrthoOrbital C 45   py \
	OrthoOrbital C 45   pz \
	OrthoOrbital N 1   s \
	OrthoOrbital N 1   p \
	OrthoOrbital N 1   px \
	OrthoOrbital N 1   py \
	OrthoOrbital N 1   pz \
	OrthoOrbital N 2   s \
	OrthoOrbital N 2   p \
	OrthoOrbital N 2   px \
	OrthoOrbital N 2   py \
	OrthoOrbital N 2   pz \
	OrthoOrbital N 3   s \
	OrthoOrbital N 3   p \
	OrthoOrbital N 3   px \
	OrthoOrbital N 3   py \
	OrthoOrbital N 3   pz \
	OrthoOrbital N 4   s \
	OrthoOrbital N 4   p \
	OrthoOrbital N 4   px \
	OrthoOrbital N 4   py \
	OrthoOrbital N 4   pz \
	OrthoOrbital Ti 1   s \
	OrthoOrbital Ti 1   p \
	OrthoOrbital Ti 1   px \
	OrthoOrbital Ti 1   py \
	OrthoOrbital Ti 1   pz \
	OrthoOrbital Ti 1   d \
	OrthoOrbital Ti 1   dxy \
	OrthoOrbital Ti 1   dyz \
	OrthoOrbital Ti 1   dz2 \
	OrthoOrbital Ti 1   dxz \
	OrthoOrbital Ti 1   dx2-y2 \
	OrthoOrbital O 1   s \
	OrthoOrbital O 1   p \
	OrthoOrbital O 1   px \
	OrthoOrbital O 1   py \
	OrthoOrbital O 1   pz \
	OrthoOrbital O 2   s \
	OrthoOrbital O 2   p \
	OrthoOrbital O 2   px \
	OrthoOrbital O 2   py \
	OrthoOrbital O 2   pz \
	OrthoOrbital O 3   s \
	OrthoOrbital O 3   p \
	OrthoOrbital O 3   px \
	OrthoOrbital O 3   py \
	OrthoOrbital O 3   pz \
	OrthoOrbital H 1   s \
	OrthoOrbital H 2   s \
	OrthoOrbital H 3   s
dump End ElecDensity KEdensity BandEigs EigStats RhoAtom DOS Kpoints
dump Ionic State IonicPositions Lattice EigStats Ecomponents
dump 
dump 
dump 
dump 
dump 
dump 
dump 
dump 
dump-name jdft.$VAR
elec-cutoff 20
elec-eigen-algo Davidson
elec-ex-corr gga-PBE
elec-initial-magnetization 0.000000 no
elec-n-bands 140
elec-smearing Fermi 0.001
electronic-minimize  \
	dirUpdateScheme      FletcherReeves \
	linminMethod         DirUpdateRecommended \
	nIterations          100 \
	history              15 \
	knormThreshold       0 \
	energyDiffThreshold  1e-07 \
	nEnergyDiff          2 \
	alphaTstart          1 \
	alphaTmin            1e-10 \
	updateTestStepSize   yes \
	alphaTreduceFactor   0.1 \
	alphaTincreaseFactor 3 \
	nAlphaAdjustMax      3 \
	wolfeEnergy          0.0001 \
	wolfeGradient        0.9 \
	fdTest               no
exchange-regularization WignerSeitzTruncated
fluid LinearPCM 298.000000 1.013250
fluid-anion F- 0.5 MeanFieldLJ \
	epsBulk 1 \
	pMol 0 \
	epsInf 1 \
	Pvap 0 \
	sigmaBulk 0 \
	Rvdw 2.24877 \
	Res 0 \
	tauNuc 343133
fluid-cation Na+ 0.5 MeanFieldLJ \
	epsBulk 1 \
	pMol 0 \
	epsInf 1 \
	Pvap 0 \
	sigmaBulk 0 \
	Rvdw 2.19208 \
	Res 0 \
	tauNuc 343133
fluid-ex-corr lda-TF lda-PZ
fluid-gummel-loop 10 1.000000e-05
fluid-minimize  \
	dirUpdateScheme      PolakRibiere \
	linminMethod         DirUpdateRecommended \
	nIterations          400 \
	history              15 \
	knormThreshold       1e-11 \
	energyDiffThreshold  0 \
	nEnergyDiff          2 \
	alphaTstart          1 \
	alphaTmin            1e-10 \
	updateTestStepSize   yes \
	alphaTreduceFactor   0.1 \
	alphaTincreaseFactor 3 \
	nAlphaAdjustMax      6 \
	wolfeEnergy          0.0001 \
	wolfeGradient        0.9 \
	fdTest               no
fluid-solvent H2O 55.338 ScalarEOS \
	epsBulk 78.4 \
	pMol 0.92466 \
	epsInf 1.77 \
	Pvap 1.06736e-10 \
	sigmaBulk 4.62e-05 \
	Rvdw 2.61727 \
	Res 1.42 \
	tauNuc 343133 \
	poleEl 15 7 1
forces-output-coords Positions
initial-state jdft.$VAR
ion C   0.002461000000000   0.090659000000000   0.035211000000000 0
ion C  21.041053000000002   4.043435000000001   0.055195000000000 0
ion C  18.693049999999999   8.044991000000003  43.242557000000012 0
ion C  -7.046992000000000  12.045087000000004  43.237972000000013 0
ion C  -9.373006000000004  16.055339000000007   0.014058000000000 0
ion C   4.682712000000001   0.178006000000000   0.056017000000000 0
ion C   2.288986000000000   4.209373000000002   0.200839000000000 0
ion C  -0.131572000000000   8.023855000000003   0.205641000000000 0
ion C  -2.427594000000004  12.026528000000006   0.070075000000000 0
ion C  -4.719897000000003  16.054004000000006   0.027554000000000 0
ion C   9.378058000000003   0.064519000000000   0.004196000000000 0
ion C   7.082672000000002   4.155137000000002   0.027684000000000 0
ion C  -0.019167000000001  15.949339000000005   0.097932000000000 0
ion C   2.341992000000003  19.929452999999999   0.025651000000000 0
ion C  11.753337999999999   4.028723000000002  43.231787000000011 0
ion C   9.459151000000002   8.022460000000001   0.013712000000000 0
ion C   4.669438000000000  15.840057000000003   0.136776000000000 0
ion C   6.994317999999998  19.941245000000006   0.021412000000000 0
ion C  16.396037000000000   4.017783000000002  43.242644000000013 0
ion C  14.086560000000000   8.039380000000003  43.239443000000016 0
ion C  11.771976000000000  12.042837000000004   0.027468000000000 0
ion C   9.376505000000002  15.996794000000003   0.009170000000000 0
ion C  -0.013639000000000   2.774595000000000   0.087681000000000 0
ion C  -2.429311000000001   6.696097000000002   0.054892000000000 0
ion C  -4.742977000000000  10.694367000000003  43.248527000000017 0
ion C  -7.046983000000003  14.717903000000005   0.006834000000000 0
ion C  -9.375213000000002  18.744274000000004   0.039104000000000 0
ion C   4.679148000000000   2.895589000000002   0.114846000000000 0
ion C  -0.128425000000002  10.699586000000007   0.219396000000000 0
ion C  -2.400585000000001  14.697889000000005   0.071286000000000 0
ion C  -4.721467000000002  18.738989000000007   0.025391000000000 0
ion C   9.388293000000001   2.743428000000002  43.233993000000012 0
ion C   2.286725999999998  14.518199000000008   0.222813000000000 0
ion C  -0.009969000000002  18.634632000000007   0.031577000000000 0
ion C  14.073209000000007   2.676200000000000  43.243639000000016 0
ion C  11.777767000000003   6.702715000000002  43.252333000000014 0
ion C   9.456739999999996  10.717958000000005   0.053205000000000 0
ion C   7.072537999999998  14.585058000000007   0.084826000000000 0
ion C   4.667830000000004  18.558540000000004   0.054892000000000 0
ion C  18.724167000000001   2.684459000000002   0.012631000000000 0
ion C  16.391851000000003   6.691195000000002  43.226033000000015 0
ion C  14.084496000000001  10.711297000000004  43.247272000000017 0
ion C  11.745595000000002  14.717269000000007   0.014967000000000 0
ion C   9.361956000000005  18.675664000000005   0.012025000000000 0
ion C   4.440935000000001   9.173762000000005   5.548314000000003 0
ion N   2.171711999999999  11.911252000000005   0.445280000000000 0
ion N   7.176168999999999  11.997751000000006   0.180898000000000 0
ion N   2.159894000000000   6.808552000000001   0.405225000000000 0
ion N   7.186338000000002   6.738493000000002   0.048880000000000 0
ion Ti   4.884646000000001   9.336981000000000   1.565143000000000 0
ion O   3.917090000000000  10.939130000000000   7.519591000000003 0
ion O   4.926117000000002   7.016948000000002   6.249845000000002 0
ion O   1.910443276757210  15.238712963514146   6.018560919896706 1
ion H   3.296634999999998  12.545077000000003   6.785099000000002 0
ion H   2.612914971041612  16.665112501084241   6.988014642904141 1
ion H   0.209265000988115  15.005027026678595   6.742522439957635 1
ion-species /projects/musgravc/apps/jdftx-1.6.0/build/pseudopotentials/GBRV_v1.5/$ID_pbe_v1.uspp
ion-species /projects/musgravc/apps/jdftx-1.6.0/build/pseudopotentials/GBRV_v1.5/$ID_pbe_v1.2.uspp
ion-species /projects/musgravc/apps/jdftx-1.6.0/build/pseudopotentials/GBRV_v1.5/$ID_pbe_v1.4.uspp
ion-species /projects/musgravc/apps/jdftx-1.6.0/build/pseudopotentials/GBRV_v1.5/$ID_pbe_v1.5.uspp
ion-width Ecut
ionic-minimize  \
	dirUpdateScheme      L-BFGS \
	linminMethod         DirUpdateRecommended \
	nIterations          100 \
	history              15 \
	knormThreshold       0.0001 \
	energyDiffThreshold  0.0001 \
	nEnergyDiff          2 \
	alphaTstart          1 \
	alphaTmin            1e-10 \
	updateTestStepSize   yes \
	alphaTreduceFactor   0.1 \
	alphaTincreaseFactor 3 \
	nAlphaAdjustMax      3 \
	wolfeEnergy          0.0001 \
	wolfeGradient        0.9 \
	fdTest               no
kpoint   0.000000000000   0.000000000000   0.000000000000  1.00000000000000
kpoint-folding 3 3 1 
latt-move-scale 0 0 0
latt-scale 1 1 1 
lattice  \
	  23.436261999999999  -11.733459000000000    0.000000000000000  \
	   0.017994000000000   19.941849000000001    0.000000000000000  \
	   0.000000000000000    0.000000000000000   43.256312999999999 
lattice-minimize  \
	dirUpdateScheme      L-BFGS \
	linminMethod         DirUpdateRecommended \
	nIterations          0 \
	history              15 \
	knormThreshold       0 \
	energyDiffThreshold  1e-06 \
	nEnergyDiff          2 \
	alphaTstart          1 \
	alphaTmin            1e-10 \
	updateTestStepSize   yes \
	alphaTreduceFactor   0.1 \
	alphaTincreaseFactor 3 \
	nAlphaAdjustMax      3 \
	wolfeEnergy          0.0001 \
	wolfeGradient        0.9 \
	fdTest               no
lcao-params 30 1e-06 0.001
pcm-variant CANDLE
spintype z-spin
subspace-rotation-factor 1 yes
symmetries none
symmetry-threshold 0.0001
target-mu -0.1455 no

van-der-waals D3


Applied RMS atom displacement 0 bohrs to make symmetries exact.

---------- Initializing the Grid ----------
R = 
[      23.4363     -11.7335            0  ]
[     0.017994      19.9418            0  ]
[            0            0      43.2563  ]
unit cell volume = 20225.5
G =
[   0.267976   0.157673         -0  ]
[ -0.000241801   0.314933          0  ]
[          0         -0   0.145255  ]
Minimum fftbox size, Smin = [  96  96  176  ]
Chosen fftbox size, S = [  96  96  180  ]

---------- Exchange Correlation functional ----------
Initalized PBE GGA exchange.
Initalized PBE GGA correlation.

---------- Setting up pseudopotentials ----------
Width of ionic core gaussian charges (only for fluid interactions / plotting) set to 0.397384

Reading pseudopotential file '/projects/musgravc/apps/jdftx-1.6.0/build/pseudopotentials/GBRV_v1.5/c_pbe_v1.2.uspp':
  Title: C.  Created by USPP 7.3.6 on 3-2-2014
  Reference state energy: -5.406344.  4 valence electrons in orbitals:
    |200>  occupation: 2  eigenvalue: -0.504890
    |210>  occupation: 2  eigenvalue: -0.194356
  lMax: 1  lLocal: 2  QijEcut: 5
  4 projectors sampled on a log grid with 503 points:
    l: 0  eig: -0.504890  rCut: 1.3
    l: 0  eig: 0.000000  rCut: 1.3
    l: 1  eig: -0.194357  rCut: 1.3
    l: 1  eig: 0.000000  rCut: 1.3
  Partial core density with radius 1.1
  Transforming core density to a uniform radial grid of dG=0.02 with 1464 points.
  Transforming local potential to a uniform radial grid of dG=0.02 with 1464 points.
  Transforming nonlocal projectors to a uniform radial grid of dG=0.02 with 432 points.
  Transforming density augmentations to a uniform radial grid of dG=0.02 with 1464 points.
  Transforming atomic orbitals to a uniform radial grid of dG=0.02 with 432 points.
  Core radius for overlap checks: 1.30 bohrs.

Reading pseudopotential file '/projects/musgravc/apps/jdftx-1.6.0/build/pseudopotentials/GBRV_v1.5/n_pbe_v1.2.uspp':
  Title: N.  Created by USPP 7.3.6 on 3-2-2014
  Reference state energy: -9.763716.  5 valence electrons in orbitals:
    |200>  occupation: 2  eigenvalue: -0.681964
    |210>  occupation: 3  eigenvalue: -0.260726
  lMax: 1  lLocal: 2  QijEcut: 6
  4 projectors sampled on a log grid with 491 points:
    l: 0  eig: -0.681964  rCut: 1.15
    l: 0  eig: 0.000000  rCut: 1.15
    l: 1  eig: -0.260729  rCut: 1.2
    l: 1  eig: 0.500000  rCut: 1.2
  Partial core density with radius 0.8
  Transforming core density to a uniform radial grid of dG=0.02 with 1464 points.
  Transforming local potential to a uniform radial grid of dG=0.02 with 1464 points.
  Transforming nonlocal projectors to a uniform radial grid of dG=0.02 with 432 points.
  Transforming density augmentations to a uniform radial grid of dG=0.02 with 1464 points.
  Transforming atomic orbitals to a uniform radial grid of dG=0.02 with 432 points.
  Core radius for overlap checks: 1.20 bohrs.

Reading pseudopotential file '/projects/musgravc/apps/jdftx-1.6.0/build/pseudopotentials/GBRV_v1.5/ti_pbe_v1.4.uspp':
  Title: Ti.  Created by USPP 7.3.6 on 31-3-15
  Reference state energy: -59.020943.  12 valence electrons in orbitals:
    |300>  occupation: 2  eigenvalue: -2.777623
    |310>  occupation: 6  eigenvalue: -1.894596
    |400>  occupation: 2  eigenvalue: -0.438610
    |320>  occupation: 1  eigenvalue: -0.583119
  lMax: 2  lLocal: 3  QijEcut: 6
  6 projectors sampled on a log grid with 597 points:
    l: 0  eig: -2.777624  rCut: 1.8
    l: 0  eig: -0.438611  rCut: 1.8
    l: 1  eig: -1.894596  rCut: 1.8
    l: 1  eig: 0.500000  rCut: 1.8
    l: 2  eig: -0.583118  rCut: 1.8
    l: 2  eig: 0.150000  rCut: 1.8
  Partial core density with radius 0.8
  Transforming core density to a uniform radial grid of dG=0.02 with 1464 points.
  Transforming local potential to a uniform radial grid of dG=0.02 with 1464 points.
  Transforming nonlocal projectors to a uniform radial grid of dG=0.02 with 432 points.
  Transforming density augmentations to a uniform radial grid of dG=0.02 with 1464 points.
  Transforming atomic orbitals to a uniform radial grid of dG=0.02 with 432 points.
  Core radius for overlap checks: 1.80 bohrs.

Reading pseudopotential file '/projects/musgravc/apps/jdftx-1.6.0/build/pseudopotentials/GBRV_v1.5/o_pbe_v1.2.uspp':
  Title: O.  Created by USPP 7.3.6 on 3-2-2014
  Reference state energy: -15.894388.  6 valence electrons in orbitals:
    |200>  occupation: 2  eigenvalue: -0.878823
    |210>  occupation: 4  eigenvalue: -0.332131
  lMax: 2  lLocal: 2  QijEcut: 6
  5 projectors sampled on a log grid with 511 points:
    l: 0  eig: -0.878823  rCut: 1.25
    l: 0  eig: 0.000000  rCut: 1.25
    l: 1  eig: -0.332132  rCut: 1.25
    l: 1  eig: 0.000000  rCut: 1.25
    l: 2  eig: 1.000000  rCut: 1.25
  Partial core density with radius 0.7
  Transforming core density to a uniform radial grid of dG=0.02 with 1464 points.
  Transforming local potential to a uniform radial grid of dG=0.02 with 1464 points.
  Transforming nonlocal projectors to a uniform radial grid of dG=0.02 with 432 points.
  Transforming density augmentations to a uniform radial grid of dG=0.02 with 1464 points.
  Transforming atomic orbitals to a uniform radial grid of dG=0.02 with 432 points.
  Core radius for overlap checks: 1.25 bohrs.

Reading pseudopotential file '/projects/musgravc/apps/jdftx-1.6.0/build/pseudopotentials/GBRV_v1.5/h_pbe_v1.4.uspp':
  Title: H.  Created by USPP 7.3.6 on 2-4-15
  Reference state energy: -0.458849.  1 valence electrons in orbitals:
    |100>  occupation: 1  eigenvalue: -0.238595
  lMax: 0  lLocal: 1  QijEcut: 6
  2 projectors sampled on a log grid with 395 points:
    l: 0  eig: -0.238595  rCut: 1.2
    l: 0  eig: 1.000000  rCut: 1.2
  Transforming local potential to a uniform radial grid of dG=0.02 with 1464 points.
  Transforming nonlocal projectors to a uniform radial grid of dG=0.02 with 432 points.
  Transforming density augmentations to a uniform radial grid of dG=0.02 with 1464 points.
  Transforming atomic orbitals to a uniform radial grid of dG=0.02 with 432 points.
  Core radius for overlap checks: 1.20 bohrs.

Initialized 5 species with 56 total atoms.

Folded 1 k-points by 3x3x1 to 9 k-points.

---------- Setting up k-points, bands, fillings ----------
No reducable k-points. 
Computing the number of bands and number of electrons
Reading initial fillings from file jdft.fillings.
nElectrons: 232.967344   nBands: 140   nStates: 18

----- Setting up reduced wavefunction bases (one per k-point) -----
average nbasis = 86412.556 , ideal nbasis = 86404.907

----- Initializing Supercell corresponding to k-point mesh -----
Lattice vector linear combinations in supercell:
[   3   0   0  ]
[   0   3   0  ]
[   0   0   1  ]
Supercell lattice vectors:
[  70.3088  -35.2004  0  ]
[  0.053982  59.8255  0  ]
[  0  0  43.2563  ]

Initializing DFT-D3 calculator:
	Parameters set for gga-PBE functional
	s6:  1.000  s_r6:  1.217
	s8:  0.722  s_r8:  1.000
	Per-atom parameters loaded for:
	 C:  sqrtQ[a0]:  3.105  Rcov[a0]:  1.417  CN: [ 0.00 0.99 2.00 3.00 3.98 ]
	 N:  sqrtQ[a0]:  2.712  Rcov[a0]:  1.342  CN: [ 0.00 0.99 2.01 2.99 ]
	Ti:  sqrtQ[a0]:  6.288  Rcov[a0]:  2.305  CN: [ 0.00 1.83 3.87 ]
	 O:  sqrtQ[a0]:  2.594  Rcov[a0]:  1.191  CN: [ 0.00 0.99 1.99 ]
	 H:  sqrtQ[a0]:  2.007  Rcov[a0]:  0.605  CN: [ 0.91 0.00 ]

Initializing DFT-D2 calculator for fluid / solvation:
	 C:  C6:   30.35 Eh-a0^6  R0: 2.744 a0
	 N:  C6:   21.33 Eh-a0^6  R0: 2.640 a0
	Ti:  C6:  187.33 Eh-a0^6  R0: 2.952 a0
	 O:  C6:   12.14 Eh-a0^6  R0: 2.536 a0
	 H:  C6:    2.43 Eh-a0^6  R0: 1.892 a0

---------- Setting up ewald sum ----------
Optimum gaussian width for ewald sums = 5.557061 bohr.
Real space sum over 567 unit cells with max indices [  4  4  3  ]
Reciprocal space sum over 7803 terms with max indices [  8  8  13  ]

Computing DFT-D3 correction:
# coordination-number C 3.301 3.323 3.336 3.332 3.313 3.291 3.322 3.534 3.329 3.313 3.303 3.341 3.301 3.301 3.323 3.747 3.270 3.303 3.320 3.334 3.326 3.306 3.302 3.331 3.336 3.320 3.301 3.270 3.530 3.323 3.303 3.306 3.317 3.301 3.313 3.327 3.743 3.334 3.292 3.314 3.333 3.333 3.322 3.303 2.989
# coordination-number N 3.171 3.185 3.176 3.186
# coordination-number Ti 6.852
# coordination-number O 2.019 1.171 2.014
# coordination-number H 1.025 0.992 0.992
# diagonal-C6 C 24.27 24.05 23.90 23.95 24.16 24.36 24.06 21.15 23.98 24.15 24.25 23.85 24.27 24.27 24.05 19.00 24.55 24.26 24.08 23.93 24.02 24.23 24.26 23.97 23.91 24.08 24.27 24.55 21.20 24.06 24.26 24.22 24.11 24.27 24.15 24.00 19.02 23.93 24.36 24.14 23.94 23.94 24.06 24.25 25.69
# diagonal-C6 N 15.60 15.60 15.60 15.60
# diagonal-C6 Ti 321.59
# diagonal-C6 O 10.40 12.64 10.41
# diagonal-C6 H 3.08 3.09 3.09
EvdW_6 =   -0.045083
EvdW_8 =   -0.033983

---------- Allocating electronic variables ----------
Initializing wave functions:  reading from 'jdft.wfns'
----- createFluidSolver() ----- (Fluid-side solver setup)
   Initializing fluid molecule 'H2O'
     Initializing site 'O'
       Electron density: proportional to exp(-r/0.36935)*erfc((r-0.51523)/0.36823) with norm 6.826
       Charge density: gaussian nuclear width 0.478731 with net site charge 0.826
       Polarizability: cuspless exponential with width 0.32 and norm 3.73
       Hard sphere radius: 2.57003 bohrs
       Positions in reference frame:
         [ +0.000000 +0.000000 +0.000000 ]
     Initializing site 'H'
       Electron density: proportional to exp(-r/0.34641)*erfc((r-0)/0.390882) with norm 0.587
       Charge density: gaussian nuclear width 0.377945 with net site charge -0.413
       Polarizability: cuspless exponential with width 0.39 and norm 3.3
       Positions in reference frame:
         [ +0.000000 -1.441945 +1.122523 ]
         [ +0.000000 +1.441945 +1.122523 ]
     Net charge: 0   dipole magnitude: 0.927204
     Initializing spherical shell mfKernel with radius 2.61727 Bohr
     deltaS corrections:
       site 'O': -7.54299
       site 'H': -6.83917
   Initializing fluid molecule 'Na+'
     Initializing site 'Na'
       Electron density: proportional to exp(-r/0.19682)*erfc((r-0.71491)/0.41314) with norm 8.1383
       Charge density: gaussian nuclear width 0.365347 with net site charge -1
       Hard sphere radius: 1.86327 bohrs
       Positions in reference frame:
         [ +0.000000 +0.000000 +0.000000 ]
     Net charge: -1   dipole magnitude: 0
     Initializing gaussian mfKernel with width: 1.55004 Bohr
     deltaS corrections:
       site 'Na': -22.3555
   Initializing fluid molecule 'F-'
     Initializing site 'F'
       Electron density: proportional to exp(-r/0.38886)*erfc((r-0)/0.438782) with norm 8
       Charge density: gaussian nuclear width 0.374796 with net site charge 1
       Hard sphere radius: 2.39995 bohrs
       Positions in reference frame:
         [ +0.000000 +0.000000 +0.000000 ]
     Net charge: 1   dipole magnitude: 0
     Initializing gaussian mfKernel with width: 1.59012 Bohr
     deltaS corrections:
       site 'F': -9.04335

Correction to mu due to finite nuclear width = -0.0114303
   Cavity determined by nc: 0.00142 and sigma: 0.707107
   Nonlocal vdW cavity from gaussian model electron density with norm = 8 and sigma = 0.993594 bohr
   Charge asymmetry in cavity with sensitivity pCavity = 36.5 e-bohr/Eh
   Electrostatic cavity expanded by eta = 1.46 bohrs
   Weighted density cavitation model constrained by Nbulk: 0.0049383 bohr^-3, Pvap: 3.14029 kPa, Rvdw: 2.61727 bohr and sigmaBulk: 4.62e-05 Eh/bohr^2 at T: 298 K.
   Weighted density dispersion model using vdW pair potentials with single solvent site with sqrtC6eff: 0.77 SI.
Reading fluid state from 'jdft.fluidState'


---- Citations for features of the code used in this run ----

   Software package:
      R. Sundararaman, K. Letchworth-Weaver, K.A. Schwarz, D. Gunceler, Y. Ozhabes and T.A. Arias, 'JDFTx: software for joint density-functional theory', SoftwareX 6, 278 (2017)

   gga-PBE exchange-correlation functional:
      J.P. Perdew, K. Burke and M. Ernzerhof, Phys. Rev. Lett. 77, 3865 (1996)

   Pseudopotentials:
      KF Garrity, JW Bennett, KM Rabe and D Vanderbilt, Comput. Mater. Sci. 81, 446 (2014)

   DFT-D3 dispersion correction:
      S. Grimme, J. Antony, S. Ehrlich and H. Krieg, J. Chem. Phys. 132, 154104 (2010)

   DFT-D2 dispersion correction:
      S. Grimme, J. Comput. Chem. 27, 1787 (2006)

   Charge-asymmetric nonlocally-determined local-electric (CANDLE) solvation model:
      R. Sundararaman and W.A. Goddard III, J. Chem. Phys. 142, 064107 (2015)

   Total energy minimization with Auxiliary Hamiltonian:
      C. Freysoldt, S. Boeck, and J. Neugebauer, Phys. Rev. B 79, 241103(R) (2009)

   Grand-canonical (fixed-potential) DFT:
      R. Sundararaman, W. A. Goddard III and T. A. Arias, J. Chem. Phys. 146, 114104 (2017)

   Linear-tetrahedron sampling for density of states:
      G. Lehmann and M. Taut, Phys. status solidi (b) 54, 469 (1972)

This list may not be complete. Please suggest additional citations or
report any other bugs at https://github.com/shankar1729/jdftx/issues

Initialization completed successfully at t[s]:     22.92


Computing DFT-D3 correction:
# coordination-number C 3.301 3.323 3.336 3.332 3.313 3.291 3.322 3.534 3.329 3.313 3.303 3.341 3.301 3.301 3.323 3.747 3.270 3.303 3.320 3.334 3.326 3.306 3.302 3.331 3.336 3.320 3.301 3.270 3.530 3.323 3.303 3.306 3.317 3.301 3.313 3.327 3.743 3.334 3.292 3.314 3.333 3.333 3.322 3.303 2.989
# coordination-number N 3.171 3.185 3.176 3.186
# coordination-number Ti 6.852
# coordination-number O 2.019 1.171 2.014
# coordination-number H 1.025 0.992 0.992
# diagonal-C6 C 24.27 24.05 23.90 23.95 24.16 24.36 24.06 21.15 23.98 24.15 24.25 23.85 24.27 24.27 24.05 19.00 24.55 24.26 24.08 23.93 24.02 24.23 24.26 23.97 23.91 24.08 24.27 24.55 21.20 24.06 24.26 24.22 24.11 24.27 24.15 24.00 19.02 23.93 24.36 24.14 23.94 23.94 24.06 24.25 25.69
# diagonal-C6 N 15.60 15.60 15.60 15.60
# diagonal-C6 Ti 321.59
# diagonal-C6 O 10.40 12.64 10.41
# diagonal-C6 H 3.08 3.09 3.09
EvdW_6 =   -0.045083
EvdW_8 =   -0.033983
Shifting auxilliary hamiltonian by -0.000004 to set nElectrons=232.967344

-------- Electronic minimization -----------
	Linear fluid (dielectric constant: 78.4, screening length: 8.12261 Bohr) occupying 0.709505 of unit cell:	Completed after 3 iterations at t[s]:     52.97
	FillingsUpdate:  mu: -0.145500000  nElectrons: 232.967344  magneticMoment: [ Abs: 0.66975  Tot: -0.53533 ]
ElecMinimize: Iter:   0  G: -371.474998085251627  |grad|_K:  1.566e-07  alpha:  1.000e+00
	Linear fluid (dielectric constant: 78.4, screening length: 8.12261 Bohr) occupying 0.709362 of unit cell:	Completed after 13 iterations at t[s]:    166.85
	Linear fluid (dielectric constant: 78.4, screening length: 8.12261 Bohr) occupying 0.709500 of unit cell:	Completed after 13 iterations at t[s]:    213.81
	FillingsUpdate:  mu: -0.145500000  nElectrons: 232.966334  magneticMoment: [ Abs: 0.66880  Tot: -0.53433 ]
	SubspaceRotationAdjust: set factor to 0.628
ElecMinimize: Iter:   1  G: -371.474998296553849  |grad|_K:  5.894e-08  alpha:  3.418e-02  linmin: -3.849e-04  t[s]:    265.97
	Linear fluid (dielectric constant: 78.4, screening length: 8.12261 Bohr) occupying 0.709500 of unit cell:	Completed after 0 iterations at t[s]:    310.39
ElecMinimize: 	Predicted alpha/alphaT>3.000000, increasing alphaT to 1.025404e-01.
	Linear fluid (dielectric constant: 78.4, screening length: 8.12261 Bohr) occupying 0.709500 of unit cell:	Completed after 0 iterations at t[s]:    349.47
ElecMinimize: 	Predicted alpha/alphaT>3.000000, increasing alphaT to 3.076212e-01.
	Linear fluid (dielectric constant: 78.4, screening length: 8.12261 Bohr) occupying 0.709500 of unit cell:	Completed after 2 iterations at t[s]:    389.54
	Linear fluid (dielectric constant: 78.4, screening length: 8.12261 Bohr) occupying 0.709500 of unit cell:	Completed after 0 iterations at t[s]:    428.34
	FillingsUpdate:  mu: -0.145500000  nElectrons: 232.966636  magneticMoment: [ Abs: 0.66889  Tot: -0.53451 ]
	SubspaceRotationAdjust: set factor to 0.417
ElecMinimize: Iter:   2  G: -371.474998502037693  |grad|_K:  1.936e-08  alpha:  2.688e-01  linmin:  6.502e-04  t[s]:    480.75
	Linear fluid (dielectric constant: 78.4, screening length: 8.12261 Bohr) occupying 0.709503 of unit cell:	Completed after 2 iterations at t[s]:    528.31
	Linear fluid (dielectric constant: 78.4, screening length: 8.12261 Bohr) occupying 0.709501 of unit cell:	Completed after 1 iterations at t[s]:    568.60
	FillingsUpdate:  mu: -0.145500000  nElectrons: 232.966814  magneticMoment: [ Abs: 0.66904  Tot: -0.53468 ]
	SubspaceRotationAdjust: set factor to 0.239
ElecMinimize: Iter:   3  G: -371.474998510776174  |grad|_K:  2.719e-08  alpha:  5.747e-02  linmin:  1.432e-02  t[s]:    622.22
ElecMinimize: 	Bad step direction: g.d > 0.
ElecMinimize: 	Undoing step.
	Linear fluid (dielectric constant: 78.4, screening length: 8.12261 Bohr) occupying 0.709501 of unit cell:	Completed after 0 iterations at t[s]:    667.44
ElecMinimize: 	Step failed: resetting search direction.
	FillingsUpdate:  mu: -0.145500000  nElectrons: 232.966814  magneticMoment: [ Abs: 0.66904  Tot: -0.53468 ]
	SubspaceRotationAdjust: set factor to 0.151
ElecMinimize: Iter:   4  G: -371.474998510775549  |grad|_K:  2.158e-08  alpha:  0.000e+00
	Linear fluid (dielectric constant: 78.4, screening length: 8.12261 Bohr) occupying 0.709500 of unit cell:	Completed after 0 iterations at t[s]:    764.55
ElecMinimize: 	Wrong curvature in test step, increasing alphaT to 1.724188e-01.
	Linear fluid (dielectric constant: 78.4, screening length: 8.12261 Bohr) occupying 0.709500 of unit cell:	Completed after 0 iterations at t[s]:    791.10
	FillingsUpdate:  mu: -0.145500000  nElectrons: 232.966702  magneticMoment: [ Abs: 0.66893  Tot: -0.53457 ]
	SubspaceRotationAdjust: set factor to 0.101
	SubspaceRotationAdjust: resetting CG because factor has changed by 0.101045
	Linear fluid (dielectric constant: 78.4, screening length: 8.12261 Bohr) occupying 0.709500 of unit cell:	Completed after 0 iterations at t[s]:    866.94
ElecMinimize: 	State modified externally: resetting search direction.
ElecMinimize: Iter:   5  G: -371.474998522716589  |grad|_K:  1.621e-08  alpha: -1.236e+00
	Linear fluid (dielectric constant: 78.4, screening length: 8.12261 Bohr) occupying 0.709496 of unit cell:	Completed after 2 iterations at t[s]:    967.13
	Linear fluid (dielectric constant: 78.4, screening length: 8.12261 Bohr) occupying 0.709499 of unit cell:	Completed after 1 iterations at t[s]:   1005.93
ElecMinimize: 	Step increased G by 1.410365e-08, reducing alpha to 1.635787e-02.
	Linear fluid (dielectric constant: 78.4, screening length: 8.12261 Bohr) occupying 0.709500 of unit cell:	Completed after 0 iterations at t[s]:   1094.41
ElecMinimize: 	Step increased G by 9.191695e-09, reducing alpha to 1.635787e-03.
	Linear fluid (dielectric constant: 78.4, screening length: 8.12261 Bohr) occupying 0.709500 of unit cell:	Completed after 0 iterations at t[s]:   1181.52
ElecMinimize: 	Step increased G by 1.278096e-08, reducing alpha to 1.635787e-04.
ElecMinimize: 	Step failed to reduce G after 3 attempts. Quitting step.
ElecMinimize: 	Undoing step.
	Linear fluid (dielectric constant: 78.4, screening length: 8.12261 Bohr) occupying 0.709500 of unit cell:	Completed after 0 iterations at t[s]:   1270.21
ElecMinimize: 	Step failed along negative gradient direction.
ElecMinimize: Probably at roundoff error limit. (Stopping)
Setting wave functions to eigenvectors of Hamiltonian
Converging empty states (this may take a while): |deigs|: 2.299e-08

Computing DFT-D3 correction:
# coordination-number C 3.301 3.323 3.336 3.332 3.313 3.291 3.322 3.534 3.329 3.313 3.303 3.341 3.301 3.301 3.323 3.747 3.270 3.303 3.320 3.334 3.326 3.306 3.302 3.331 3.336 3.320 3.301 3.270 3.530 3.323 3.303 3.306 3.317 3.301 3.313 3.327 3.743 3.334 3.292 3.314 3.333 3.333 3.322 3.303 2.989
# coordination-number N 3.171 3.185 3.176 3.186
# coordination-number Ti 6.852
# coordination-number O 2.019 1.171 2.014
# coordination-number H 1.025 0.992 0.992
# diagonal-C6 C 24.27 24.05 23.90 23.95 24.16 24.36 24.06 21.15 23.98 24.15 24.25 23.85 24.27 24.27 24.05 19.00 24.55 24.26 24.08 23.93 24.02 24.23 24.26 23.97 23.91 24.08 24.27 24.55 21.20 24.06 24.26 24.22 24.11 24.27 24.15 24.00 19.02 23.93 24.36 24.14 23.94 23.94 24.06 24.25 25.69
# diagonal-C6 N 15.60 15.60 15.60 15.60
# diagonal-C6 Ti 321.59
# diagonal-C6 O 10.40 12.64 10.41
# diagonal-C6 H 3.08 3.09 3.09
EvdW_6 =   -0.045083
EvdW_8 =   -0.033983

# Ionic positions in cartesian coordinates:
ion C   0.002461000000000   0.090659000000000   0.035211000000000 0
ion C  21.041053000000002   4.043435000000001   0.055195000000000 0
ion C  18.693049999999999   8.044991000000003  43.242557000000012 0
ion C  -7.046992000000000  12.045087000000004  43.237972000000013 0
ion C  -9.373006000000004  16.055339000000007   0.014058000000000 0
ion C   4.682712000000001   0.178006000000000   0.056017000000000 0
ion C   2.288986000000000   4.209373000000002   0.200839000000000 0
ion C  -0.131572000000000   8.023855000000003   0.205641000000000 0
ion C  -2.427594000000004  12.026528000000006   0.070075000000000 0
ion C  -4.719897000000003  16.054004000000006   0.027554000000000 0
ion C   9.378058000000003   0.064519000000000   0.004196000000000 0
ion C   7.082672000000002   4.155137000000002   0.027684000000000 0
ion C  -0.019167000000001  15.949339000000005   0.097932000000000 0
ion C   2.341992000000003  19.929452999999999   0.025651000000000 0
ion C  11.753337999999999   4.028723000000002  43.231787000000011 0
ion C   9.459151000000002   8.022460000000001   0.013712000000000 0
ion C   4.669438000000000  15.840057000000003   0.136776000000000 0
ion C   6.994317999999998  19.941245000000006   0.021412000000000 0
ion C  16.396037000000000   4.017783000000002  43.242644000000013 0
ion C  14.086560000000000   8.039380000000003  43.239443000000016 0
ion C  11.771976000000000  12.042837000000004   0.027468000000000 0
ion C   9.376505000000002  15.996794000000003   0.009170000000000 0
ion C  -0.013639000000000   2.774595000000000   0.087681000000000 0
ion C  -2.429311000000001   6.696097000000002   0.054892000000000 0
ion C  -4.742977000000000  10.694367000000003  43.248527000000017 0
ion C  -7.046983000000003  14.717903000000005   0.006834000000000 0
ion C  -9.375213000000002  18.744274000000004   0.039104000000000 0
ion C   4.679148000000000   2.895589000000002   0.114846000000000 0
ion C  -0.128425000000002  10.699586000000007   0.219396000000000 0
ion C  -2.400585000000001  14.697889000000005   0.071286000000000 0
ion C  -4.721467000000002  18.738989000000007   0.025391000000000 0
ion C   9.388293000000001   2.743428000000002  43.233993000000012 0
ion C   2.286725999999998  14.518199000000008   0.222813000000000 0
ion C  -0.009969000000002  18.634632000000007   0.031577000000000 0
ion C  14.073209000000007   2.676200000000000  43.243639000000016 0
ion C  11.777767000000003   6.702715000000002  43.252333000000014 0
ion C   9.456739999999996  10.717958000000005   0.053205000000000 0
ion C   7.072537999999998  14.585058000000007   0.084826000000000 0
ion C   4.667830000000004  18.558540000000004   0.054892000000000 0
ion C  18.724167000000001   2.684459000000002   0.012631000000000 0
ion C  16.391851000000003   6.691195000000002  43.226033000000015 0
ion C  14.084496000000001  10.711297000000004  43.247272000000017 0
ion C  11.745595000000002  14.717269000000007   0.014967000000000 0
ion C   9.361956000000005  18.675664000000005   0.012025000000000 0
ion C   4.440935000000001   9.173762000000005   5.548314000000003 0
ion N   2.171711999999999  11.911252000000005   0.445280000000000 0
ion N   7.176168999999999  11.997751000000006   0.180898000000000 0
ion N   2.159894000000000   6.808552000000001   0.405225000000000 0
ion N   7.186338000000002   6.738493000000002   0.048880000000000 0
ion Ti   4.884646000000001   9.336981000000000   1.565143000000000 0
ion O   3.917090000000000  10.939130000000000   7.519591000000003 0
ion O   4.926117000000002   7.016948000000002   6.249845000000002 0
ion O   1.910443276757210  15.238712963514146   6.018560919896706 1
ion H   3.296634999999998  12.545077000000003   6.785099000000002 0
ion H   2.612914971041612  16.665112501084241   6.988014642904141 1
ion H   0.209265000988115  15.005027026678595   6.742522439957635 1

# Forces in Cartesian coordinates:
force C   0.000011062519267  -0.000117666344566  -0.000051288465850 0
force C  -0.000142758654602  -0.000078022913563  -0.000006936248409 0
force C  -0.000084011270468   0.000129848938998   0.000017238384176 0
force C  -0.000200058908950  -0.000182301455367   0.000031911775493 0
force C   0.000074466610005  -0.000137433619486   0.000020964467690 0
force C  -0.000163182027825  -0.000310729877676  -0.000049574255378 0
force C   0.000417481761731  -0.000785265126983   0.000039016855660 0
force C  -0.000434888294397   0.000446722423761  -0.000027652528959 0
force C  -0.000064572044096   0.000097049450118   0.000250014122107 0
force C  -0.000250054222211   0.000126213253686   0.000027273553623 0
force C   0.000189327208893   0.000039593393741  -0.000014858596138 0
force C  -0.000114642550316   0.000283012146064   0.000256567364978 0
force C   0.000128393690391  -0.000268706087448  -0.000377037800626 0
force C  -0.000156895900460  -0.000198335109327   0.000279118942020 0
force C  -0.000145648939208   0.000115782423073  -0.000065730956775 0
force C   0.000199461192111  -0.000181665492645  -0.000080169541365 0
force C  -0.000679245683448  -0.000221649791738  -0.000076036109327 0
force C  -0.000117642276509  -0.000084254910513  -0.000012995641101 0
force C  -0.000191261465299   0.000033543440804   0.000014943644927 0
force C  -0.000046584628066  -0.000039980830975  -0.000006278130526 0
force C   0.000033368557908   0.000002860616800   0.000022183006201 0
force C   0.000449808998656  -0.000083993982877   0.000342212372578 0
force C   0.000025154597645  -0.000048666351939   0.000125548256467 0
force C   0.000150305829271  -0.000062681426604   0.000182109459149 0
force C  -0.000047527892846  -0.000159034781687   0.000019643745513 0
force C  -0.000154203534578   0.000101589967283   0.000035976824313 0
force C   0.000018798495496   0.000061015330527   0.000014793884558 0
force C  -0.000602700578513   0.000128733159245  -0.000054668178684 0
force C   0.000525141011795   0.000247593755889   0.000348833907178 0
force C   0.000887152546871   0.000161780481177   0.000035686754452 0
force C  -0.000148695501000  -0.000123966278126   0.000036569720877 0
force C   0.000165523613481  -0.000104315067828   0.000102256548046 0
force C   0.000277132581613  -0.000763269236392  -0.000104209624681 0
force C   0.000116544424529  -0.000590453595884   0.000050673997914 0
force C   0.000106590104641  -0.000140309770571  -0.000026549521551 0
force C   0.000122925840353  -0.000148283574663  -0.000038207598974 0
force C  -0.000046346839559   0.000275056453959   0.000245048765176 0
force C  -0.001280303090465  -0.000152502849092   0.000966149446320 0
force C  -0.000100281538204  -0.000597900076509   0.000197540052463 0
force C   0.000165817756281  -0.000102934374633  -0.000015670322873 0
force C  -0.000091157055265  -0.000065633090439   0.000012481956466 0
force C   0.000030594891743  -0.000003907534215   0.000018861503024 0
force C  -0.000301621891258  -0.000019376206846  -0.000005733439726 0
force C  -0.000075135780703  -0.000179337385959  -0.000039362629957 0
force C  -0.007548688150068   0.035047885715603   0.031887138508962 0
force N   0.000547661964287   0.001058252459340  -0.001652423534830 0
force N   0.000666223985064  -0.001351304582896  -0.001786229405997 0
force N   0.001434508247929   0.000468483793972  -0.000823799135839 0
force N   0.000454425991852   0.000387764744168  -0.001085604540808 0
force Ti  -0.002980607080138   0.000933239714223   0.001953244223053 0
force O   0.011923481869810  -0.040443058560141  -0.017664238346250 0
force O   0.004498718475161  -0.013303257384160  -0.004095160272410 0
force O  -0.002470850649833   0.000867972958625   0.002078201792650 1
force H  -0.005494291342097   0.018448710456087  -0.008959833409548 0
force H   0.000196263709316  -0.000287337066719  -0.001150342149706 1
force H   0.000569595851528   0.001845624476428  -0.001567855957161 1

# Energy components:
   A_diel =       -0.0199098670782708
   Eewald =     1709.5877639811938025
       EH =     2036.0840112069008683
     Eloc =    -4301.6518093540244081
      Enl =       54.7891185400118701
     EvdW =       -0.0790661865842521
      Exc =     -113.5184162927671707
 Exc_core =        3.3745842481035311
       KE =      206.0621340406925128
  MuShift =        0.0003806209382787
-------------------------------------
     Etot =     -405.3712090626131044
       TS =        0.0004443828605247
-------------------------------------
        F =     -405.3716534454736120
      muN =      -33.8966549354497815
-------------------------------------
        G =     -371.4749985100238518


Dumping 'jdft.fillings' ... done
Dumping 'jdft.wfns' ... done
Dumping 'jdft.fluidState' ... done
Dumping 'jdft.ionpos' ... done
Dumping 'jdft.lattice' ... done
Dumping 'jdft.eigenvals' ... done
Dumping 'jdft.eigStats' ... 
	eMin: -2.278309 at state 9 ( [ +0.000000 +0.000000 +0.000000 ] spin -1 )
	HOMO: -0.146463 at state 12 ( [ +0.333333 +0.000000 +0.000000 ] spin -1 )
	mu  : -0.145500
	LUMO: -0.144990 at state 10 ( [ +0.000000 +0.333333 +0.000000 ] spin -1 )
	eMax: +0.019098 at state 0 ( [ +0.000000 +0.000000 +0.000000 ] spin 1 )
	HOMO-LUMO gap: +0.001473
	Optical gap  : +0.011697 at state 17 ( [ -0.333333 -0.333333 +0.000000 ] spin -1 )
Dumping 'jdft.Ecomponents' ... done
IonicMinimize: Iter:   0  G: -371.474998510023852  |grad|_K:  1.446e-03  t[s]:   1453.90

#--- Lowdin population analysis ---
# oxidation-state C +0.043 +0.050 +0.042 +0.049 +0.041 +0.045 +0.167 +0.137 +0.032 +0.040 +0.043 +0.173 +0.036 +0.046 +0.052 +0.113 +0.004 +0.045 +0.038 +0.044 +0.035 +0.027 +0.029 +0.032 +0.041 +0.037 +0.046 -0.003 +0.134 +0.048 +0.044 +0.026 +0.179 +0.044 +0.040 +0.035 +0.112 +0.172 +0.045 +0.040 +0.049 +0.044 +0.051 +0.042 +0.178
# magnetic-moments C +0.001 -0.007 -0.002 +0.000 +0.000 +0.001 -0.012 -0.007 +0.001 +0.001 +0.001 -0.006 +0.004 -0.000 -0.001 -0.000 +0.004 -0.004 -0.001 +0.002 +0.001 -0.003 +0.004 +0.001 -0.002 -0.002 -0.000 +0.003 -0.003 -0.006 -0.007 -0.005 -0.012 +0.000 -0.001 -0.001 -0.006 -0.009 +0.000 +0.001 -0.001 +0.000 -0.004 +0.000 -0.015
# oxidation-state N -0.311 -0.322 -0.313 -0.322
# magnetic-moments N +0.009 -0.001 +0.010 -0.005
# oxidation-state Ti +1.399
# magnetic-moments Ti -0.415
# oxidation-state O -0.517 -0.443 -0.709
# magnetic-moments O -0.004 -0.018 -0.000
# oxidation-state H +0.388 +0.467 +0.461
# magnetic-moments H +0.000 -0.000 -0.000


Computing DFT-D3 correction:
# coordination-number C 3.301 3.323 3.336 3.332 3.313 3.291 3.322 3.534 3.329 3.313 3.303 3.341 3.301 3.301 3.323 3.747 3.270 3.303 3.320 3.334 3.326 3.306 3.302 3.331 3.336 3.320 3.301 3.270 3.530 3.323 3.303 3.306 3.317 3.301 3.313 3.327 3.743 3.334 3.292 3.314 3.333 3.333 3.322 3.303 2.989
# coordination-number N 3.171 3.185 3.176 3.186
# coordination-number Ti 6.852
# coordination-number O 2.019 1.171 2.014
# coordination-number H 1.025 0.992 0.992
# diagonal-C6 C 24.27 24.05 23.90 23.95 24.16 24.36 24.06 21.15 23.98 24.15 24.25 23.85 24.27 24.27 24.05 19.00 24.55 24.26 24.08 23.93 24.02 24.23 24.26 23.97 23.91 24.08 24.27 24.55 21.20 24.06 24.26 24.22 24.11 24.27 24.15 24.00 19.02 23.93 24.36 24.14 23.94 23.94 24.06 24.25 25.69
# diagonal-C6 N 15.60 15.60 15.60 15.60
# diagonal-C6 Ti 321.59
# diagonal-C6 O 10.40 12.64 10.41
# diagonal-C6 H 3.08 3.09 3.09
EvdW_6 =   -0.045084
EvdW_8 =   -0.033982
Shifting auxilliary hamiltonian by 0.000086 to set nElectrons=232.966701

-------- Electronic minimization -----------
	Linear fluid (dielectric constant: 78.4, screening length: 8.12261 Bohr) occupying 0.709503 of unit cell:	Completed after 4 iterations at t[s]:   1511.57
	FillingsUpdate:  mu: -0.145500000  nElectrons: 232.966701  magneticMoment: [ Abs: 0.67027  Tot: -0.53538 ]
ElecMinimize: Iter:   0  G: -371.475006728874803  |grad|_K:  2.201e-07  alpha:  1.000e+00
	Linear fluid (dielectric constant: 78.4, screening length: 8.12261 Bohr) occupying 0.709458 of unit cell:	Completed after 8 iterations at t[s]:   1622.47
	Linear fluid (dielectric constant: 78.4, screening length: 8.12261 Bohr) occupying 0.709490 of unit cell:	Completed after 8 iterations at t[s]:   1666.14
	FillingsUpdate:  mu: -0.145500000  nElectrons: 232.963893  magneticMoment: [ Abs: 0.66759  Tot: -0.53258 ]
	SubspaceRotationAdjust: set factor to 0.0667
ElecMinimize: Iter:   1  G: -371.475009876722197  |grad|_K:  1.033e-07  alpha:  2.881e-01  linmin: -2.468e-04  t[s]:   1719.07
	Linear fluid (dielectric constant: 78.4, screening length: 8.12261 Bohr) occupying 0.709492 of unit cell:	Completed after 2 iterations at t[s]:   1765.43
	Linear fluid (dielectric constant: 78.4, screening length: 8.12261 Bohr) occupying 0.709494 of unit cell:	Completed after 1 iterations at t[s]:   1804.12
	FillingsUpdate:  mu: -0.145500000  nElectrons: 232.964353  magneticMoment: [ Abs: 0.66776  Tot: -0.53291 ]
	SubspaceRotationAdjust: set factor to 0.1
ElecMinimize: Iter:   2  G: -371.475011135964223  |grad|_K:  3.829e-08  alpha:  5.220e-01  linmin: -4.454e-03  t[s]:   1856.33
	Linear fluid (dielectric constant: 78.4, screening length: 8.12261 Bohr) occupying 0.709497 of unit cell:	Completed after 1 iterations at t[s]:   1902.82
	Linear fluid (dielectric constant: 78.4, screening length: 8.12261 Bohr) occupying 0.709499 of unit cell:	Completed after 1 iterations at t[s]:   1941.70
	FillingsUpdate:  mu: -0.145500000  nElectrons: 232.965063  magneticMoment: [ Abs: 0.66822  Tot: -0.53351 ]
	SubspaceRotationAdjust: set factor to 0.119
ElecMinimize: Iter:   3  G: -371.475011389392591  |grad|_K:  2.385e-08  alpha:  7.613e-01  linmin: -3.063e-03  t[s]:   1995.01
	Linear fluid (dielectric constant: 78.4, screening length: 8.12261 Bohr) occupying 0.709502 of unit cell:	Completed after 0 iterations at t[s]:   2041.32
	Linear fluid (dielectric constant: 78.4, screening length: 8.12261 Bohr) occupying 0.709502 of unit cell:	Completed after 0 iterations at t[s]:   2079.68
	FillingsUpdate:  mu: -0.145500000  nElectrons: 232.965564  magneticMoment: [ Abs: 0.66840  Tot: -0.53383 ]
	SubspaceRotationAdjust: set factor to 0.161
ElecMinimize: Iter:   4  G: -371.475011535123315  |grad|_K:  2.265e-08  alpha:  1.012e+00  linmin: -9.020e-04  t[s]:   2131.92
	Linear fluid (dielectric constant: 78.4, screening length: 8.12261 Bohr) occupying 0.709505 of unit cell:	Completed after 2 iterations at t[s]:   2179.06
	Linear fluid (dielectric constant: 78.4, screening length: 8.12261 Bohr) occupying 0.709503 of unit cell:	Completed after 0 iterations at t[s]:   2217.15
	FillingsUpdate:  mu: -0.145500000  nElectrons: 232.965781  magneticMoment: [ Abs: 0.66842  Tot: -0.53392 ]
	SubspaceRotationAdjust: set factor to 0.134
ElecMinimize: Iter:   5  G: -371.475011576183249  |grad|_K:  3.721e-08  alpha:  4.309e-01  linmin:  1.028e-03  t[s]:   2269.54
	Linear fluid (dielectric constant: 78.4, screening length: 8.12261 Bohr) occupying 0.709510 of unit cell:	Completed after 3 iterations at t[s]:   2317.02
	Linear fluid (dielectric constant: 78.4, screening length: 8.12261 Bohr) occupying 0.709505 of unit cell:	Completed after 1 iterations at t[s]:   2356.13
ElecMinimize: 	Step increased G by 3.052276e-08, reducing alpha to 9.836489e-03.
	Linear fluid (dielectric constant: 78.4, screening length: 8.12261 Bohr) occupying 0.709504 of unit cell:	Completed after 0 iterations at t[s]:   2442.97
ElecMinimize: 	Step increased G by 2.970057e-08, reducing alpha to 9.836489e-04.
	Linear fluid (dielectric constant: 78.4, screening length: 8.12261 Bohr) occupying 0.709504 of unit cell:	Completed after 0 iterations at t[s]:   2532.46
ElecMinimize: 	Step increased G by 3.061081e-08, reducing alpha to 9.836489e-05.
ElecMinimize: 	Step failed to reduce G after 3 attempts. Quitting step.
ElecMinimize: 	Undoing step.
	Linear fluid (dielectric constant: 78.4, screening length: 8.12261 Bohr) occupying 0.709503 of unit cell:	Completed after 0 iterations at t[s]:   2620.19
ElecMinimize: 	Step failed: resetting search direction.
	FillingsUpdate:  mu: -0.145500000  nElectrons: 232.965785  magneticMoment: [ Abs: 0.66842  Tot: -0.53393 ]
	SubspaceRotationAdjust: set factor to 0.0764
ElecMinimize: Iter:   6  G: -371.475011545584209  |grad|_K:  2.187e-08  alpha:  9.836e-05
	Linear fluid (dielectric constant: 78.4, screening length: 8.12261 Bohr) occupying 0.709501 of unit cell:	Completed after 2 iterations at t[s]:   2718.17
	Linear fluid (dielectric constant: 78.4, screening length: 8.12261 Bohr) occupying 0.709502 of unit cell:	Completed after 0 iterations at t[s]:   2755.59
	FillingsUpdate:  mu: -0.145500000  nElectrons: 232.965602  magneticMoment: [ Abs: 0.66824  Tot: -0.53374 ]
	SubspaceRotationAdjust: set factor to 0.0552
ElecMinimize: Iter:   7  G: -371.475011553725551  |grad|_K:  2.604e-08  alpha:  2.164e-01  linmin:  1.804e-03  t[s]:   2808.52
	Linear fluid (dielectric constant: 78.4, screening length: 8.12261 Bohr) occupying 0.709501 of unit cell:	Completed after 0 iterations at t[s]:   2853.34
	Linear fluid (dielectric constant: 78.4, screening length: 8.12261 Bohr) occupying 0.709500 of unit cell:	Completed after 0 iterations at t[s]:   2891.39
	FillingsUpdate:  mu: -0.145500000  nElectrons: 232.965556  magneticMoment: [ Abs: 0.66815  Tot: -0.53366 ]
	SubspaceRotationAdjust: set factor to 0.0483
ElecMinimize: Iter:   8  G: -371.475011600014454  |grad|_K:  1.849e-08  alpha:  3.585e-01  linmin: -2.758e-05  t[s]:   2943.95
ElecMinimize: Converged (|Delta G|<1.000000e-07 for 2 iters).
Setting wave functions to eigenvectors of Hamiltonian
Converging empty states (this may take a while): |deigs|: 8.941e-09

Computing DFT-D3 correction:
# coordination-number C 3.301 3.323 3.336 3.332 3.313 3.291 3.322 3.534 3.329 3.313 3.303 3.341 3.301 3.301 3.323 3.747 3.270 3.303 3.320 3.334 3.326 3.306 3.302 3.331 3.336 3.320 3.301 3.270 3.530 3.323 3.303 3.306 3.317 3.301 3.313 3.327 3.743 3.334 3.292 3.314 3.333 3.333 3.322 3.303 2.989
# coordination-number N 3.171 3.185 3.176 3.186
# coordination-number Ti 6.852
# coordination-number O 2.019 1.171 2.014
# coordination-number H 1.025 0.992 0.992
# diagonal-C6 C 24.27 24.05 23.90 23.95 24.16 24.36 24.06 21.15 23.98 24.15 24.25 23.85 24.27 24.27 24.05 19.00 24.55 24.26 24.08 23.93 24.02 24.23 24.26 23.97 23.91 24.08 24.27 24.55 21.20 24.06 24.26 24.22 24.11 24.27 24.15 24.00 19.02 23.93 24.36 24.14 23.94 23.94 24.06 24.25 25.69
# diagonal-C6 N 15.60 15.60 15.60 15.60
# diagonal-C6 Ti 321.59
# diagonal-C6 O 10.40 12.64 10.41
# diagonal-C6 H 3.08 3.09 3.09
EvdW_6 =   -0.045084
EvdW_8 =   -0.033982

# Ionic positions in cartesian coordinates:
ion C   0.002461000000000   0.090659000000000   0.035211000000000 0
ion C  21.041053000000002   4.043435000000001   0.055195000000000 0
ion C  18.693049999999999   8.044991000000003  43.242557000000012 0
ion C  -7.046992000000000  12.045087000000004  43.237972000000013 0
ion C  -9.373006000000004  16.055339000000007   0.014058000000000 0
ion C   4.682712000000001   0.178006000000000   0.056017000000000 0
ion C   2.288986000000000   4.209373000000002   0.200839000000000 0
ion C  -0.131572000000000   8.023855000000003   0.205641000000000 0
ion C  -2.427594000000004  12.026528000000006   0.070075000000000 0
ion C  -4.719897000000003  16.054004000000006   0.027554000000000 0
ion C   9.378058000000003   0.064519000000000   0.004196000000000 0
ion C   7.082672000000002   4.155137000000002   0.027684000000000 0
ion C  -0.019167000000001  15.949339000000005   0.097932000000000 0
ion C   2.341992000000003  19.929452999999999   0.025651000000000 0
ion C  11.753337999999999   4.028723000000002  43.231787000000011 0
ion C   9.459151000000002   8.022460000000001   0.013712000000000 0
ion C   4.669438000000000  15.840057000000003   0.136776000000000 0
ion C   6.994317999999998  19.941245000000006   0.021412000000000 0
ion C  16.396037000000000   4.017783000000002  43.242644000000013 0
ion C  14.086560000000000   8.039380000000003  43.239443000000016 0
ion C  11.771976000000000  12.042837000000004   0.027468000000000 0
ion C   9.376505000000002  15.996794000000003   0.009170000000000 0
ion C  -0.013639000000000   2.774595000000000   0.087681000000000 0
ion C  -2.429311000000001   6.696097000000002   0.054892000000000 0
ion C  -4.742977000000000  10.694367000000003  43.248527000000017 0
ion C  -7.046983000000003  14.717903000000005   0.006834000000000 0
ion C  -9.375213000000002  18.744274000000004   0.039104000000000 0
ion C   4.679148000000000   2.895589000000002   0.114846000000000 0
ion C  -0.128425000000002  10.699586000000007   0.219396000000000 0
ion C  -2.400585000000001  14.697889000000005   0.071286000000000 0
ion C  -4.721467000000002  18.738989000000007   0.025391000000000 0
ion C   9.388293000000001   2.743428000000002  43.233993000000012 0
ion C   2.286725999999998  14.518199000000008   0.222813000000000 0
ion C  -0.009969000000002  18.634632000000007   0.031577000000000 0
ion C  14.073209000000007   2.676200000000000  43.243639000000016 0
ion C  11.777767000000003   6.702715000000002  43.252333000000014 0
ion C   9.456739999999996  10.717958000000005   0.053205000000000 0
ion C   7.072537999999998  14.585058000000007   0.084826000000000 0
ion C   4.667830000000004  18.558540000000004   0.054892000000000 0
ion C  18.724167000000001   2.684459000000002   0.012631000000000 0
ion C  16.391851000000003   6.691195000000002  43.226033000000015 0
ion C  14.084496000000001  10.711297000000004  43.247272000000017 0
ion C  11.745595000000002  14.717269000000007   0.014967000000000 0
ion C   9.361956000000005  18.675664000000005   0.012025000000000 0
ion C   4.440935000000001   9.173762000000005   5.548314000000003 0
ion N   2.171711999999999  11.911252000000005   0.445280000000000 0
ion N   7.176168999999999  11.997751000000006   0.180898000000000 0
ion N   2.159894000000000   6.808552000000001   0.405225000000000 0
ion N   7.186338000000002   6.738493000000002   0.048880000000000 0
ion Ti   4.884646000000001   9.336981000000000   1.565143000000000 0
ion O   3.917090000000000  10.939130000000000   7.519591000000003 0
ion O   4.926117000000002   7.016948000000002   6.249845000000002 0
ion O   1.907972426107376  15.239580936472770   6.020639121689356 1
ion H   3.296634999999998  12.545077000000003   6.785099000000002 0
ion H   2.613111234750928  16.664825164017522   6.986864300754435 1
ion H   0.209834596839642  15.006872651155023   6.740954584000474 1

# Forces in Cartesian coordinates:
force C   0.000013597618875  -0.000117538040354  -0.000053376132485 0
force C  -0.000135522105629  -0.000076828841452  -0.000009307585979 0
force C  -0.000080929347494   0.000130171036860   0.000014887511550 0
force C  -0.000200417628432  -0.000183228087924   0.000028727658340 0
force C   0.000076539079552  -0.000135022711335   0.000017251219753 0
force C  -0.000161874562880  -0.000306574644313  -0.000052407581338 0
force C   0.000422691124205  -0.000783687275563   0.000032684524784 0
force C  -0.000422259403235   0.000444337347450  -0.000026390138634 0
force C  -0.000060744132461   0.000095136246833   0.000244872447616 0
force C  -0.000250269557473   0.000129400735466   0.000024778036527 0
force C   0.000188852356010   0.000041030832596  -0.000017982468220 0
force C  -0.000118562060362   0.000291768973008   0.000256336100512 0
force C   0.000125578939109  -0.000269675603765  -0.000383425204251 0
force C  -0.000159051103005  -0.000197963138240   0.000274764662073 0
force C  -0.000153005887253   0.000114689248908  -0.000070685743324 0
force C   0.000188957058996  -0.000190303831269  -0.000096898485539 0
force C  -0.000680216590746  -0.000224530563483  -0.000081014475358 0
force C  -0.000118125468781  -0.000085771617419  -0.000015982738443 0
force C  -0.000192525496551   0.000031363783271   0.000012131813083 0
force C  -0.000050956797344  -0.000040767065130  -0.000010875436277 0
force C   0.000029299957332  -0.000000039399965   0.000011617504511 0
force C   0.000451631540673  -0.000085899493080   0.000336287134270 0
force C   0.000023332798320  -0.000046327759262   0.000123723239206 0
force C   0.000152745359881  -0.000061198902761   0.000178889785590 0
force C  -0.000046668577546  -0.000159588282638   0.000017004914690 0
force C  -0.000156104294600   0.000101687740783   0.000033162434094 0
force C   0.000016339787492   0.000061279041470   0.000011991168515 0
force C  -0.000603927501211   0.000132210707455  -0.000058004345846 0
force C   0.000536634397670   0.000249430874297   0.000347688641869 0
force C   0.000891155701246   0.000161204644456   0.000030678321267 0
force C  -0.000148299313818  -0.000122262509960   0.000034148221568 0
force C   0.000169105842948  -0.000100761958597   0.000097875403024 0
force C   0.000281056530612  -0.000768312034398  -0.000115294652663 0
force C   0.000116611144261  -0.000588953286264   0.000047175373275 0
force C   0.000108407994125  -0.000140768343102  -0.000029835823298 0
force C   0.000119475243487  -0.000144477635185  -0.000047804826195 0
force C  -0.000054416645290   0.000281255073981   0.000225362860298 0
force C  -0.001281376262057  -0.000161120767834   0.000962229830601 0
force C  -0.000097764081186  -0.000598246691882   0.000191844870781 0
force C   0.000163449367528  -0.000104552274198  -0.000017951700982 0
force C  -0.000093314528365  -0.000063031242581   0.000009444985202 0
force C   0.000025998892241  -0.000004564416357   0.000014174641478 0
force C  -0.000308292752544  -0.000020712211259  -0.000011513121105 0
force C  -0.000075754713692  -0.000181240591880  -0.000043206546249 0
force C  -0.007541974817425   0.035020812175194   0.031862918523193 0
force N   0.000567646567715   0.001040811070617  -0.001661102586611 0
force N   0.000648706486750  -0.001375309676428  -0.001797427563301 0
force N   0.001453312593436   0.000480420839487  -0.000827306222491 0
force N   0.000433868865395   0.000410128463029  -0.001093658305441 0
force Ti  -0.002910989684602   0.000928343508819   0.001941214936812 0
force O   0.011905126758265  -0.040367359186547  -0.017664428838376 0
force O   0.004493452468304  -0.013265357208070  -0.004085552150741 0
force O  -0.000568910260177   0.000399067552977   0.000696228714699 1
force H  -0.005515923133668   0.018418731786244  -0.008944715045975 0
force H   0.000350185036943   0.000263855249960  -0.000726301407103 1
force H  -0.001335349140390   0.001664238267411  -0.000667924809974 1

# Energy components:
   A_diel =       -0.0197948319729005
   Eewald =     1709.5727630371020496
       EH =     2036.0458115383339646
     Eloc =    -4301.6005521514598513
      Enl =       54.7895571829003600
     EvdW =       -0.0790665346053470
      Exc =     -113.5192689564019588
 Exc_core =        3.3745844900820861
       KE =      206.0645179986616427
  MuShift =        0.0003937032907360
-------------------------------------
     Etot =     -405.3710545240692227
       TS =        0.0004454812971208
-------------------------------------
        F =     -405.3715000053663289
      muN =      -33.8964884053518603
-------------------------------------
        G =     -371.4750116000144544


Dumping 'jdft.fillings' ... done
Dumping 'jdft.wfns' ... done
Dumping 'jdft.fluidState' ... done
Dumping 'jdft.ionpos' ... done
Dumping 'jdft.lattice' ... done
Dumping 'jdft.eigenvals' ... done
Dumping 'jdft.eigStats' ... 
	eMin: -2.278322 at state 9 ( [ +0.000000 +0.000000 +0.000000 ] spin -1 )
	HOMO: -0.146462 at state 12 ( [ +0.333333 +0.000000 +0.000000 ] spin -1 )
	mu  : -0.145500
	LUMO: -0.144989 at state 10 ( [ +0.000000 +0.333333 +0.000000 ] spin -1 )
	eMax: +0.019094 at state 0 ( [ +0.000000 +0.000000 +0.000000 ] spin 1 )
	HOMO-LUMO gap: +0.001473
	Optical gap  : +0.011699 at state 17 ( [ -0.333333 -0.333333 +0.000000 ] spin -1 )
Dumping 'jdft.Ecomponents' ... done
IonicMinimize: Iter:   1  G: -371.475011600014454  |grad|_K:  8.619e-04  alpha:  1.000e+00  linmin: -2.387e-02  t[s]:   3072.25

#--- Lowdin population analysis ---
# oxidation-state C +0.043 +0.050 +0.042 +0.049 +0.041 +0.045 +0.167 +0.137 +0.032 +0.040 +0.043 +0.173 +0.036 +0.046 +0.052 +0.113 +0.004 +0.045 +0.038 +0.044 +0.035 +0.027 +0.029 +0.032 +0.041 +0.037 +0.046 -0.003 +0.134 +0.048 +0.044 +0.026 +0.179 +0.044 +0.040 +0.035 +0.112 +0.172 +0.045 +0.040 +0.049 +0.044 +0.051 +0.042 +0.178
# magnetic-moments C +0.001 -0.007 -0.002 +0.000 +0.000 +0.001 -0.012 -0.007 +0.001 +0.001 +0.001 -0.006 +0.004 -0.000 -0.001 -0.000 +0.004 -0.004 -0.001 +0.002 +0.001 -0.003 +0.004 +0.001 -0.002 -0.002 -0.000 +0.003 -0.003 -0.006 -0.007 -0.005 -0.012 +0.000 -0.001 -0.001 -0.006 -0.009 +0.000 +0.001 -0.001 +0.000 -0.004 +0.000 -0.015
# oxidation-state N -0.311 -0.322 -0.313 -0.322
# magnetic-moments N +0.009 -0.001 +0.010 -0.005
# oxidation-state Ti +1.400
# magnetic-moments Ti -0.414
# oxidation-state O -0.517 -0.443 -0.710
# magnetic-moments O -0.004 -0.018 -0.000
# oxidation-state H +0.388 +0.467 +0.462
# magnetic-moments H +0.000 -0.000 -0.000


Computing DFT-D3 correction:
# coordination-number C 3.301 3.323 3.336 3.332 3.313 3.291 3.322 3.534 3.329 3.313 3.303 3.341 3.301 3.301 3.323 3.747 3.270 3.303 3.320 3.334 3.326 3.306 3.302 3.331 3.336 3.320 3.301 3.270 3.530 3.323 3.303 3.306 3.317 3.301 3.313 3.327 3.743 3.334 3.292 3.314 3.333 3.333 3.322 3.303 2.989
# coordination-number N 3.171 3.185 3.176 3.186
# coordination-number Ti 6.852
# coordination-number O 2.019 1.171 2.014
# coordination-number H 1.025 0.992 0.993
# diagonal-C6 C 24.27 24.05 23.90 23.95 24.16 24.36 24.06 21.15 23.98 24.15 24.25 23.85 24.27 24.27 24.05 19.00 24.55 24.26 24.08 23.93 24.02 24.23 24.26 23.97 23.91 24.08 24.27 24.55 21.20 24.06 24.26 24.22 24.11 24.27 24.15 24.00 19.02 23.93 24.36 24.14 23.94 23.94 24.06 24.25 25.69
# diagonal-C6 N 15.60 15.60 15.60 15.60
# diagonal-C6 Ti 321.59
# diagonal-C6 O 10.40 12.64 10.41
# diagonal-C6 H 3.08 3.09 3.09
EvdW_6 =   -0.045086
EvdW_8 =   -0.033981
Shifting auxilliary hamiltonian by 0.000094 to set nElectrons=232.965556

-------- Electronic minimization -----------
	Linear fluid (dielectric constant: 78.4, screening length: 8.12261 Bohr) occupying 0.709499 of unit cell:	Completed after 4 iterations at t[s]:   3130.20
	FillingsUpdate:  mu: -0.145500000  nElectrons: 232.965556  magneticMoment: [ Abs: 0.66905  Tot: -0.53423 ]
ElecMinimize: Iter:   0  G: -371.475019535385343  |grad|_K:  1.917e-07  alpha:  1.000e+00
	Linear fluid (dielectric constant: 78.4, screening length: 8.12261 Bohr) occupying 0.709483 of unit cell:	Completed after 6 iterations at t[s]:   3239.02
	Linear fluid (dielectric constant: 78.4, screening length: 8.12261 Bohr) occupying 0.709491 of unit cell:	Completed after 3 iterations at t[s]:   3279.31
	FillingsUpdate:  mu: -0.145500000  nElectrons: 232.963923  magneticMoment: [ Abs: 0.66747  Tot: -0.53259 ]
	SubspaceRotationAdjust: set factor to 0.0405
ElecMinimize: Iter:   1  G: -371.475023554141671  |grad|_K:  1.002e-07  alpha:  4.992e-01  linmin:  4.730e-04  t[s]:   3331.94
	Linear fluid (dielectric constant: 78.4, screening length: 8.12261 Bohr) occupying 0.709493 of unit cell:	Completed after 2 iterations at t[s]:   3378.39
	Linear fluid (dielectric constant: 78.4, screening length: 8.12261 Bohr) occupying 0.709493 of unit cell:	Completed after 0 iterations at t[s]:   3415.82
	FillingsUpdate:  mu: -0.145500000  nElectrons: 232.964166  magneticMoment: [ Abs: 0.66760  Tot: -0.53279 ]
	SubspaceRotationAdjust: set factor to 0.0413
ElecMinimize: Iter:   2  G: -371.475024468091021  |grad|_K:  3.974e-08  alpha:  4.146e-01  linmin:  7.647e-03  t[s]:   3468.02
	Linear fluid (dielectric constant: 78.4, screening length: 8.12261 Bohr) occupying 0.709494 of unit cell:	Completed after 1 iterations at t[s]:   3514.59
	Linear fluid (dielectric constant: 78.4, screening length: 8.12261 Bohr) occupying 0.709494 of unit cell:	Completed after 0 iterations at t[s]:   3552.34
	FillingsUpdate:  mu: -0.145500000  nElectrons: 232.964275  magneticMoment: [ Abs: 0.66760  Tot: -0.53284 ]
	SubspaceRotationAdjust: set factor to 0.0532
ElecMinimize: Iter:   3  G: -371.475024684175651  |grad|_K:  1.977e-08  alpha:  5.861e-01  linmin: -1.793e-02  t[s]:   3604.89
	Linear fluid (dielectric constant: 78.4, screening length: 8.12261 Bohr) occupying 0.709496 of unit cell:	Completed after 0 iterations at t[s]:   3649.95
	Linear fluid (dielectric constant: 78.4, screening length: 8.12261 Bohr) occupying 0.709498 of unit cell:	Completed after 1 iterations at t[s]:   3688.89
	FillingsUpdate:  mu: -0.145500000  nElectrons: 232.964617  magneticMoment: [ Abs: 0.66772  Tot: -0.53308 ]
	SubspaceRotationAdjust: set factor to 0.065
ElecMinimize: Iter:   4  G: -371.475024783526635  |grad|_K:  1.980e-08  alpha:  1.261e+00  linmin:  2.402e-03  t[s]:   3741.85
	Linear fluid (dielectric constant: 78.4, screening length: 8.12261 Bohr) occupying 0.709501 of unit cell:	Completed after 1 iterations at t[s]:   3788.31
	Linear fluid (dielectric constant: 78.4, screening length: 8.12261 Bohr) occupying 0.709499 of unit cell:	Completed after 0 iterations at t[s]:   3826.13
	FillingsUpdate:  mu: -0.145500000  nElectrons: 232.964885  magneticMoment: [ Abs: 0.66781  Tot: -0.53324 ]
	SubspaceRotationAdjust: set factor to 0.0799
ElecMinimize: Iter:   5  G: -371.475024821307443  |grad|_K:  1.953e-08  alpha:  6.497e-01  linmin: -1.479e-04  t[s]:   3877.34
ElecMinimize: Converged (|Delta G|<1.000000e-07 for 2 iters).
Setting wave functions to eigenvectors of Hamiltonian
Converging empty states (this may take a while): |deigs|: 6.988e-09

Computing DFT-D3 correction:
# coordination-number C 3.301 3.323 3.336 3.332 3.313 3.291 3.322 3.534 3.329 3.313 3.303 3.341 3.301 3.301 3.323 3.747 3.270 3.303 3.320 3.334 3.326 3.306 3.302 3.331 3.336 3.320 3.301 3.270 3.530 3.323 3.303 3.306 3.317 3.301 3.313 3.327 3.743 3.334 3.292 3.314 3.333 3.333 3.322 3.303 2.989
# coordination-number N 3.171 3.185 3.176 3.186
# coordination-number Ti 6.852
# coordination-number O 2.019 1.171 2.014
# coordination-number H 1.025 0.992 0.993
# diagonal-C6 C 24.27 24.05 23.90 23.95 24.16 24.36 24.06 21.15 23.98 24.15 24.25 23.85 24.27 24.27 24.05 19.00 24.55 24.26 24.08 23.93 24.02 24.23 24.26 23.97 23.91 24.08 24.27 24.55 21.20 24.06 24.26 24.22 24.11 24.27 24.15 24.00 19.02 23.93 24.36 24.14 23.94 23.94 24.06 24.25 25.69
# diagonal-C6 N 15.60 15.60 15.60 15.60
# diagonal-C6 Ti 321.59
# diagonal-C6 O 10.40 12.64 10.41
# diagonal-C6 H 3.08 3.09 3.09
EvdW_6 =   -0.045086
EvdW_8 =   -0.033981

# Ionic positions in cartesian coordinates:
ion C   0.002461000000000   0.090659000000000   0.035211000000000 0
ion C  21.041053000000002   4.043435000000001   0.055195000000000 0
ion C  18.693049999999999   8.044991000000003  43.242557000000012 0
ion C  -7.046992000000000  12.045087000000004  43.237972000000013 0
ion C  -9.373006000000004  16.055339000000007   0.014058000000000 0
ion C   4.682712000000001   0.178006000000000   0.056017000000000 0
ion C   2.288986000000000   4.209373000000002   0.200839000000000 0
ion C  -0.131572000000000   8.023855000000003   0.205641000000000 0
ion C  -2.427594000000004  12.026528000000006   0.070075000000000 0
ion C  -4.719897000000003  16.054004000000006   0.027554000000000 0
ion C   9.378058000000003   0.064519000000000   0.004196000000000 0
ion C   7.082672000000002   4.155137000000002   0.027684000000000 0
ion C  -0.019167000000001  15.949339000000005   0.097932000000000 0
ion C   2.341992000000003  19.929452999999999   0.025651000000000 0
ion C  11.753337999999999   4.028723000000002  43.231787000000011 0
ion C   9.459151000000002   8.022460000000001   0.013712000000000 0
ion C   4.669438000000000  15.840057000000003   0.136776000000000 0
ion C   6.994317999999998  19.941245000000006   0.021412000000000 0
ion C  16.396037000000000   4.017783000000002  43.242644000000013 0
ion C  14.086560000000000   8.039380000000003  43.239443000000016 0
ion C  11.771976000000000  12.042837000000004   0.027468000000000 0
ion C   9.376505000000002  15.996794000000003   0.009170000000000 0
ion C  -0.013639000000000   2.774595000000000   0.087681000000000 0
ion C  -2.429311000000001   6.696097000000002   0.054892000000000 0
ion C  -4.742977000000000  10.694367000000003  43.248527000000017 0
ion C  -7.046983000000003  14.717903000000005   0.006834000000000 0
ion C  -9.375213000000002  18.744274000000004   0.039104000000000 0
ion C   4.679148000000000   2.895589000000002   0.114846000000000 0
ion C  -0.128425000000002  10.699586000000007   0.219396000000000 0
ion C  -2.400585000000001  14.697889000000005   0.071286000000000 0
ion C  -4.721467000000002  18.738989000000007   0.025391000000000 0
ion C   9.388293000000001   2.743428000000002  43.233993000000012 0
ion C   2.286725999999998  14.518199000000008   0.222813000000000 0
ion C  -0.009969000000002  18.634632000000007   0.031577000000000 0
ion C  14.073209000000007   2.676200000000000  43.243639000000016 0
ion C  11.777767000000003   6.702715000000002  43.252333000000014 0
ion C   9.456739999999996  10.717958000000005   0.053205000000000 0
ion C   7.072537999999998  14.585058000000007   0.084826000000000 0
ion C   4.667830000000004  18.558540000000004   0.054892000000000 0
ion C  18.724167000000001   2.684459000000002   0.012631000000000 0
ion C  16.391851000000003   6.691195000000002  43.226033000000015 0
ion C  14.084496000000001  10.711297000000004  43.247272000000017 0
ion C  11.745595000000002  14.717269000000007   0.014967000000000 0
ion C   9.361956000000005  18.675664000000005   0.012025000000000 0
ion C   4.440935000000001   9.173762000000005   5.548314000000003 0
ion N   2.171711999999999  11.911252000000005   0.445280000000000 0
ion N   7.176168999999999  11.997751000000006   0.180898000000000 0
ion N   2.159894000000000   6.808552000000001   0.405225000000000 0
ion N   7.186338000000002   6.738493000000002   0.048880000000000 0
ion Ti   4.884646000000001   9.336981000000000   1.565143000000000 0
ion O   3.917090000000000  10.939130000000000   7.519591000000003 0
ion O   4.926117000000002   7.016948000000002   6.249845000000002 0
ion O   1.905642648066346  15.240748730671145   6.022980504482171 1
ion H   3.296634999999998  12.545077000000003   6.785099000000002 0
ion H   2.613831178197094  16.665132994223136   6.984970393635957 1
ion H   0.207799804029905  15.010786294726161   6.738937970120383 1

# Forces in Cartesian coordinates:
force C   0.000014294740213  -0.000122009273444  -0.000048101251093 0
force C  -0.000135434228325  -0.000075747973145  -0.000010989531831 0
force C  -0.000082364620176   0.000131791083675   0.000014108294672 0
force C  -0.000199476824151  -0.000183502354074   0.000033193362883 0
force C   0.000078717803758  -0.000134954868517   0.000021799893957 0
force C  -0.000163121987132  -0.000309560452006  -0.000049140020351 0
force C   0.000423691939677  -0.000797081107060   0.000031284853664 0
force C  -0.000390431057016   0.000452480933694   0.000001445139910 0
force C  -0.000068858115795   0.000097622644678   0.000242639997089 0
force C  -0.000253406352694   0.000128600394225   0.000025530579574 0
force C   0.000185243585288   0.000036667382241  -0.000016880971375 0
force C  -0.000122540608377   0.000294555434415   0.000271737621319 0
force C   0.000104782520525  -0.000260710452641  -0.000387510376384 0
force C  -0.000158960189327  -0.000196580932585   0.000277110800491 0
force C  -0.000153277418337   0.000116220437238  -0.000066373361938 0
force C   0.000157188823212  -0.000180782121079  -0.000107403238224 0
force C  -0.000677012111553  -0.000228947193647  -0.000063274474198 0
force C  -0.000114352175687  -0.000084395166581  -0.000014479653200 0
force C  -0.000190856224080   0.000034000802893   0.000014778565647 0
force C  -0.000045819438078  -0.000037669006905  -0.000002112542531 0
force C   0.000040517862140   0.000004639178063   0.000010495255433 0
force C   0.000467599824219  -0.000077926495048   0.000343199954282 0
force C   0.000008681548169  -0.000053970192181   0.000124035908088 0
force C   0.000145757322457  -0.000064985012667   0.000175016956801 0
force C  -0.000048258090665  -0.000162964888116   0.000014889131152 0
force C  -0.000155743982239   0.000100175391249   0.000036201665617 0
force C   0.000015657032995   0.000062066000840   0.000016805645883 0
force C  -0.000605840632734   0.000139145015819  -0.000052655318429 0
force C   0.000563661068661   0.000234634823470   0.000373018458265 0
force C   0.000889067272381   0.000157931409496   0.000029784086107 0
force C  -0.000147792137110  -0.000122732297419   0.000036706709452 0
force C   0.000180832597249  -0.000107250140840   0.000108551746080 0
force C   0.000281831554537  -0.000758952067416  -0.000117539592145 0
force C   0.000116041874793  -0.000581624689725   0.000051105855245 0
force C   0.000110892209560  -0.000139098583553  -0.000027164697543 0
force C   0.000128071810377  -0.000148681222563  -0.000047540375779 0
force C  -0.000080831180437   0.000267572070797   0.000199374260045 0
force C  -0.001280164932207  -0.000164034320596   0.000975976166754 0
force C  -0.000097392537389  -0.000590970345671   0.000194238496703 0
force C   0.000163542743257  -0.000102403672119  -0.000016586124700 0
force C  -0.000090510386701  -0.000062927295869   0.000014749306290 0
force C   0.000031870721940  -0.000006835630864   0.000023253831474 0
force C  -0.000307090768306  -0.000020844233474  -0.000006054675564 0
force C  -0.000075824140246  -0.000175495578639  -0.000041153991548 0
force C  -0.007552232799619   0.034897745539097   0.032000950215802 0
force N   0.000395138169732   0.001134754398383  -0.001626619979442 0
force N   0.000826519759150  -0.001307114681701  -0.001807165919294 0
force N   0.001303468216047   0.000394286443854  -0.000804530484545 0
force N   0.000585743983227   0.000351769558070  -0.001110639776376 0
force Ti  -0.003021432682876   0.000930587856216   0.001982558800197 0
force O   0.011865284697690  -0.040248909626354  -0.017658218601333 0
force O   0.004478891482890  -0.013238340476652  -0.004044961241469 0
force O   0.000194389067129  -0.000236115947192  -0.000416951572444 1
force H  -0.005551272296781   0.018371757166567  -0.008910456144521 0
force H   0.000497626033674   0.000870917783494  -0.000226839665787 1
force H  -0.002273810510929   0.001600364197200  -0.000116105552758 1

# Energy components:
   A_diel =       -0.0197344554165897
   Eewald =     1709.5513120807427185
       EH =     2036.0122649168592943
     Eloc =    -4301.5477068095015056
      Enl =       54.7903225892559362
     EvdW =       -0.0790671119107296
      Exc =     -113.5200714538715090
 Exc_core =        3.3745847662776476
       KE =      206.0667248693285956
  MuShift =        0.0004013711772011
-------------------------------------
     Etot =     -405.3709692370590574
       TS =        0.0004463822403894
-------------------------------------
        F =     -405.3714156192994551
      muN =      -33.8963907979920123
-------------------------------------
        G =     -371.4750248213074428


Dumping 'jdft.fillings' ... done
Dumping 'jdft.wfns' ... done
Dumping 'jdft.fluidState' ... done
Dumping 'jdft.ionpos' ... done
Dumping 'jdft.lattice' ... done
Dumping 'jdft.eigenvals' ... done
Dumping 'jdft.eigStats' ... 
	eMin: -2.278089 at state 9 ( [ +0.000000 +0.000000 +0.000000 ] spin -1 )
	HOMO: -0.146374 at state 12 ( [ +0.333333 +0.000000 +0.000000 ] spin -1 )
	mu  : -0.145500
	LUMO: -0.144890 at state 10 ( [ +0.000000 +0.333333 +0.000000 ] spin -1 )
	eMax: +0.019062 at state 0 ( [ +0.000000 +0.000000 +0.000000 ] spin 1 )
	HOMO-LUMO gap: +0.001484
	Optical gap  : +0.011758 at state 17 ( [ -0.333333 -0.333333 +0.000000 ] spin -1 )
Dumping 'jdft.Ecomponents' ... done
IonicMinimize: Iter:   2  G: -371.475024821307443  |grad|_K:  1.004e-03  alpha:  1.000e+00  linmin: -2.324e-02  t[s]:   4004.99
IonicMinimize: Converged (|Delta G|<1.000000e-04 for 2 iters).

#--- Lowdin population analysis ---
# oxidation-state C +0.043 +0.050 +0.042 +0.049 +0.041 +0.045 +0.167 +0.137 +0.032 +0.040 +0.043 +0.173 +0.036 +0.046 +0.052 +0.113 +0.004 +0.045 +0.038 +0.044 +0.035 +0.027 +0.029 +0.032 +0.041 +0.036 +0.046 -0.003 +0.134 +0.048 +0.044 +0.026 +0.179 +0.044 +0.040 +0.035 +0.112 +0.172 +0.045 +0.040 +0.049 +0.044 +0.050 +0.042 +0.178
# magnetic-moments C +0.001 -0.007 -0.002 +0.000 +0.000 +0.001 -0.012 -0.007 +0.001 +0.001 +0.001 -0.006 +0.004 -0.000 -0.001 -0.001 +0.004 -0.004 -0.001 +0.001 +0.001 -0.003 +0.004 +0.001 -0.002 -0.002 -0.000 +0.003 -0.003 -0.006 -0.007 -0.005 -0.012 +0.000 -0.001 -0.001 -0.006 -0.009 +0.000 +0.001 -0.001 +0.000 -0.004 -0.000 -0.015
# oxidation-state N -0.311 -0.322 -0.313 -0.323
# magnetic-moments N +0.008 -0.001 +0.010 -0.005
# oxidation-state Ti +1.405
# magnetic-moments Ti -0.412
# oxidation-state O -0.517 -0.443 -0.710
# magnetic-moments O -0.004 -0.018 -0.000
# oxidation-state H +0.389 +0.467 +0.462
# magnetic-moments H +0.000 -0.000 -0.000


Dumping 'jdft.n_up' ... done
Dumping 'jdft.n_dn' ... done
Dumping 'jdft.tau_up' ... done
Dumping 'jdft.tau_dn' ... done
Dumping 'jdft.eigenvals' ... done
Dumping 'jdft.eigStats' ... 
	eMin: -2.278089 at state 9 ( [ +0.000000 +0.000000 +0.000000 ] spin -1 )
	HOMO: -0.146374 at state 12 ( [ +0.333333 +0.000000 +0.000000 ] spin -1 )
	mu  : -0.145500
	LUMO: -0.144890 at state 10 ( [ +0.000000 +0.333333 +0.000000 ] spin -1 )
	eMax: +0.019062 at state 0 ( [ +0.000000 +0.000000 +0.000000 ] spin 1 )
	HOMO-LUMO gap: +0.001484
	Optical gap  : +0.011758 at state 17 ( [ -0.333333 -0.333333 +0.000000 ] spin -1 )
Dumping 'jdft.kPts' ... done
Dumping 'jdft.dosUp' ... done.
Dumping 'jdft.dosDn' ... done.
End date and time: Thu Sep 22 00:35:33 2022  (Duration: 0-1:08:07.36)
Done!

PROFILER:             augmentDensityGrid     0.716494 +/-     0.849254 s,  245 calls,    175.541001 s total
PROFILER:         augmentDensityGridGrad     0.507258 +/-     0.654379 s,  160 calls,     81.161332 s total
PROFILER:        augmentDensitySpherical     0.000491 +/-     0.000675 s,  245 calls,      0.120238 s total
PROFILER:    augmentDensitySphericalGrad     0.000671 +/-     0.000908 s,  190 calls,      0.127444 s total
PROFILER:                 augmentOverlap     1.543287 +/-     2.176287 s,  540 calls,    833.375114 s total
PROFILER:                     diagouterI    15.420834 +/-     0.283622 s,   52 calls,    801.883344 s total
PROFILER:              EdensityAndVscloc     9.083957 +/-     2.261321 s,   49 calls,    445.113903 s total
PROFILER:                     EnlAndGrad     0.001795 +/-     0.002644 s,  290 calls,      0.520646 s total
PROFILER:            ExCorrCommunication     0.061385 +/-     0.102255 s,  329 calls,     20.195738 s total
PROFILER:               ExCorrFunctional     0.023732 +/-     0.006086 s,   59 calls,      1.400198 s total
PROFILER:                    ExCorrTotal     0.637434 +/-     0.296950 s,   59 calls,     37.608629 s total
PROFILER:                   Idag_DiagV_I    30.164640 +/-     0.403795 s,   35 calls,   1055.762410 s total
PROFILER:                    initWeights     1.847876 +/-     0.000000 s,    1 calls,      1.847876 s total
PROFILER:                    inv(matrix)     0.002619 +/-     0.002709 s,   46 calls,      0.120491 s total
PROFILER:            matrix::diagonalize     0.009329 +/-     0.006630 s,   83 calls,      0.774325 s total
PROFILER:                    matrix::set     0.000004 +/-     0.000008 s, 5482 calls,      0.022530 s total
PROFILER:            orthoMatrix(matrix)     0.002408 +/-     0.001557 s,   50 calls,      0.120414 s total
PROFILER:     RadialFunctionR::transform     0.012474 +/-     0.130224 s,  146 calls,      1.821170 s total
PROFILER:                    reduceKmesh     0.000000 +/-     0.000000 s,    1 calls,      0.000000 s total
PROFILER:   VanDerWaalsD3::energyAndGrad     0.036295 +/-     0.002148 s,    7 calls,      0.254067 s total
PROFILER:               WavefunctionDrag    25.203783 +/-     6.460449 s,    3 calls,     75.611350 s total
PROFILER:                            Y*M     0.701106 +/-     0.848627 s,  931 calls,    652.729439 s total
PROFILER:                          Y1^Y2     0.767709 +/-     0.883634 s,  711 calls,    545.841300 s total

MEMUSAGE:                   ColumnBundle     1.365987 GB
MEMUSAGE:        complexScalarFieldTilde     0.074158 GB
MEMUSAGE:                    IndexArrays     0.023178 GB
MEMUSAGE:                         matrix     0.020854 GB
MEMUSAGE:                           misc     0.051230 GB
MEMUSAGE:                    ScalarField     0.358429 GB
MEMUSAGE:               ScalarFieldTilde     0.262436 GB
MEMUSAGE:                          Total     1.646313 GB
