
*************** JDFTx 1.7.0 (git hash 5f12716a) ***************

Start date and time: Tue Mar 14 13:36:07 2023
Executable /home/nisi6161/jdftx_alpine/build/jdftx with command-line: -i in
Running on hosts (process indices):  c3cpu-a9-u5-3.rc.int.colorado.edu (0-17)
Divided in process groups (process indices):  0 (0)  1 (1)  2 (2)  3 (3)  4 (4)  5 (5)  6 (6)  7 (7)  8 (8)  9 (9)  10 (10)  11 (11)  12 (12)  13 (13)  14 (14)  15 (15)  16 (16)  17 (17)
Resource initialization completed at t[s]:      0.00
Run totals: 18 processes, 64 threads, 0 GPUs


Input parsed successfully to the following command list (including defaults):

basis kpoint-dependent
converge-empty-states yes
coords-type Cartesian
core-overlap-check none
coulomb-interaction Periodic
davidson-band-ratio 1.1
density-of-states Etol 1.000000e-06 Esigma 1.000000e-03 \
		Complete \
	Total \
	OrthoOrbital C 1   s \
	OrthoOrbital C 1   p \
	OrthoOrbital C 1   px \
	OrthoOrbital C 1   py \
	OrthoOrbital C 1   pz \
	OrthoOrbital C 2   s \
	OrthoOrbital C 2   p \
	OrthoOrbital C 2   px \
	OrthoOrbital C 2   py \
	OrthoOrbital C 2   pz \
	OrthoOrbital C 3   s \
	OrthoOrbital C 3   p \
	OrthoOrbital C 3   px \
	OrthoOrbital C 3   py \
	OrthoOrbital C 3   pz \
	OrthoOrbital C 4   s \
	OrthoOrbital C 4   p \
	OrthoOrbital C 4   px \
	OrthoOrbital C 4   py \
	OrthoOrbital C 4   pz \
	OrthoOrbital C 5   s \
	OrthoOrbital C 5   p \
	OrthoOrbital C 5   px \
	OrthoOrbital C 5   py \
	OrthoOrbital C 5   pz \
	OrthoOrbital C 6   s \
	OrthoOrbital C 6   p \
	OrthoOrbital C 6   px \
	OrthoOrbital C 6   py \
	OrthoOrbital C 6   pz \
	OrthoOrbital C 7   s \
	OrthoOrbital C 7   p \
	OrthoOrbital C 7   px \
	OrthoOrbital C 7   py \
	OrthoOrbital C 7   pz \
	OrthoOrbital C 8   s \
	OrthoOrbital C 8   p \
	OrthoOrbital C 8   px \
	OrthoOrbital C 8   py \
	OrthoOrbital C 8   pz \
	OrthoOrbital C 9   s \
	OrthoOrbital C 9   p \
	OrthoOrbital C 9   px \
	OrthoOrbital C 9   py \
	OrthoOrbital C 9   pz \
	OrthoOrbital C 10   s \
	OrthoOrbital C 10   p \
	OrthoOrbital C 10   px \
	OrthoOrbital C 10   py \
	OrthoOrbital C 10   pz \
	OrthoOrbital C 11   s \
	OrthoOrbital C 11   p \
	OrthoOrbital C 11   px \
	OrthoOrbital C 11   py \
	OrthoOrbital C 11   pz \
	OrthoOrbital C 12   s \
	OrthoOrbital C 12   p \
	OrthoOrbital C 12   px \
	OrthoOrbital C 12   py \
	OrthoOrbital C 12   pz \
	OrthoOrbital C 13   s \
	OrthoOrbital C 13   p \
	OrthoOrbital C 13   px \
	OrthoOrbital C 13   py \
	OrthoOrbital C 13   pz \
	OrthoOrbital C 14   s \
	OrthoOrbital C 14   p \
	OrthoOrbital C 14   px \
	OrthoOrbital C 14   py \
	OrthoOrbital C 14   pz \
	OrthoOrbital C 15   s \
	OrthoOrbital C 15   p \
	OrthoOrbital C 15   px \
	OrthoOrbital C 15   py \
	OrthoOrbital C 15   pz \
	OrthoOrbital C 16   s \
	OrthoOrbital C 16   p \
	OrthoOrbital C 16   px \
	OrthoOrbital C 16   py \
	OrthoOrbital C 16   pz \
	OrthoOrbital C 17   s \
	OrthoOrbital C 17   p \
	OrthoOrbital C 17   px \
	OrthoOrbital C 17   py \
	OrthoOrbital C 17   pz \
	OrthoOrbital C 18   s \
	OrthoOrbital C 18   p \
	OrthoOrbital C 18   px \
	OrthoOrbital C 18   py \
	OrthoOrbital C 18   pz \
	OrthoOrbital C 19   s \
	OrthoOrbital C 19   p \
	OrthoOrbital C 19   px \
	OrthoOrbital C 19   py \
	OrthoOrbital C 19   pz \
	OrthoOrbital C 20   s \
	OrthoOrbital C 20   p \
	OrthoOrbital C 20   px \
	OrthoOrbital C 20   py \
	OrthoOrbital C 20   pz \
	OrthoOrbital C 21   s \
	OrthoOrbital C 21   p \
	OrthoOrbital C 21   px \
	OrthoOrbital C 21   py \
	OrthoOrbital C 21   pz \
	OrthoOrbital C 22   s \
	OrthoOrbital C 22   p \
	OrthoOrbital C 22   px \
	OrthoOrbital C 22   py \
	OrthoOrbital C 22   pz \
	OrthoOrbital C 23   s \
	OrthoOrbital C 23   p \
	OrthoOrbital C 23   px \
	OrthoOrbital C 23   py \
	OrthoOrbital C 23   pz \
	OrthoOrbital C 24   s \
	OrthoOrbital C 24   p \
	OrthoOrbital C 24   px \
	OrthoOrbital C 24   py \
	OrthoOrbital C 24   pz \
	OrthoOrbital C 25   s \
	OrthoOrbital C 25   p \
	OrthoOrbital C 25   px \
	OrthoOrbital C 25   py \
	OrthoOrbital C 25   pz \
	OrthoOrbital C 26   s \
	OrthoOrbital C 26   p \
	OrthoOrbital C 26   px \
	OrthoOrbital C 26   py \
	OrthoOrbital C 26   pz \
	OrthoOrbital C 27   s \
	OrthoOrbital C 27   p \
	OrthoOrbital C 27   px \
	OrthoOrbital C 27   py \
	OrthoOrbital C 27   pz \
	OrthoOrbital C 28   s \
	OrthoOrbital C 28   p \
	OrthoOrbital C 28   px \
	OrthoOrbital C 28   py \
	OrthoOrbital C 28   pz \
	OrthoOrbital C 29   s \
	OrthoOrbital C 29   p \
	OrthoOrbital C 29   px \
	OrthoOrbital C 29   py \
	OrthoOrbital C 29   pz \
	OrthoOrbital C 30   s \
	OrthoOrbital C 30   p \
	OrthoOrbital C 30   px \
	OrthoOrbital C 30   py \
	OrthoOrbital C 30   pz \
	OrthoOrbital C 31   s \
	OrthoOrbital C 31   p \
	OrthoOrbital C 31   px \
	OrthoOrbital C 31   py \
	OrthoOrbital C 31   pz \
	OrthoOrbital C 32   s \
	OrthoOrbital C 32   p \
	OrthoOrbital C 32   px \
	OrthoOrbital C 32   py \
	OrthoOrbital C 32   pz \
	OrthoOrbital C 33   s \
	OrthoOrbital C 33   p \
	OrthoOrbital C 33   px \
	OrthoOrbital C 33   py \
	OrthoOrbital C 33   pz \
	OrthoOrbital C 34   s \
	OrthoOrbital C 34   p \
	OrthoOrbital C 34   px \
	OrthoOrbital C 34   py \
	OrthoOrbital C 34   pz \
	OrthoOrbital C 35   s \
	OrthoOrbital C 35   p \
	OrthoOrbital C 35   px \
	OrthoOrbital C 35   py \
	OrthoOrbital C 35   pz \
	OrthoOrbital C 36   s \
	OrthoOrbital C 36   p \
	OrthoOrbital C 36   px \
	OrthoOrbital C 36   py \
	OrthoOrbital C 36   pz \
	OrthoOrbital C 37   s \
	OrthoOrbital C 37   p \
	OrthoOrbital C 37   px \
	OrthoOrbital C 37   py \
	OrthoOrbital C 37   pz \
	OrthoOrbital C 38   s \
	OrthoOrbital C 38   p \
	OrthoOrbital C 38   px \
	OrthoOrbital C 38   py \
	OrthoOrbital C 38   pz \
	OrthoOrbital C 39   s \
	OrthoOrbital C 39   p \
	OrthoOrbital C 39   px \
	OrthoOrbital C 39   py \
	OrthoOrbital C 39   pz \
	OrthoOrbital C 40   s \
	OrthoOrbital C 40   p \
	OrthoOrbital C 40   px \
	OrthoOrbital C 40   py \
	OrthoOrbital C 40   pz \
	OrthoOrbital C 41   s \
	OrthoOrbital C 41   p \
	OrthoOrbital C 41   px \
	OrthoOrbital C 41   py \
	OrthoOrbital C 41   pz \
	OrthoOrbital C 42   s \
	OrthoOrbital C 42   p \
	OrthoOrbital C 42   px \
	OrthoOrbital C 42   py \
	OrthoOrbital C 42   pz \
	OrthoOrbital C 43   s \
	OrthoOrbital C 43   p \
	OrthoOrbital C 43   px \
	OrthoOrbital C 43   py \
	OrthoOrbital C 43   pz \
	OrthoOrbital C 44   s \
	OrthoOrbital C 44   p \
	OrthoOrbital C 44   px \
	OrthoOrbital C 44   py \
	OrthoOrbital C 44   pz \
	OrthoOrbital C 45   s \
	OrthoOrbital C 45   p \
	OrthoOrbital C 45   px \
	OrthoOrbital C 45   py \
	OrthoOrbital C 45   pz \
	OrthoOrbital N 1   s \
	OrthoOrbital N 1   p \
	OrthoOrbital N 1   px \
	OrthoOrbital N 1   py \
	OrthoOrbital N 1   pz \
	OrthoOrbital N 2   s \
	OrthoOrbital N 2   p \
	OrthoOrbital N 2   px \
	OrthoOrbital N 2   py \
	OrthoOrbital N 2   pz \
	OrthoOrbital N 3   s \
	OrthoOrbital N 3   p \
	OrthoOrbital N 3   px \
	OrthoOrbital N 3   py \
	OrthoOrbital N 3   pz \
	OrthoOrbital N 4   s \
	OrthoOrbital N 4   p \
	OrthoOrbital N 4   px \
	OrthoOrbital N 4   py \
	OrthoOrbital N 4   pz \
	OrthoOrbital Ti 1   s \
	OrthoOrbital Ti 1   p \
	OrthoOrbital Ti 1   px \
	OrthoOrbital Ti 1   py \
	OrthoOrbital Ti 1   pz \
	OrthoOrbital Ti 1   d \
	OrthoOrbital Ti 1   dxy \
	OrthoOrbital Ti 1   dyz \
	OrthoOrbital Ti 1   dz2 \
	OrthoOrbital Ti 1   dxz \
	OrthoOrbital Ti 1   dx2-y2 \
	OrthoOrbital O 1   s \
	OrthoOrbital O 1   p \
	OrthoOrbital O 1   px \
	OrthoOrbital O 1   py \
	OrthoOrbital O 1   pz \
	OrthoOrbital O 2   s \
	OrthoOrbital O 2   p \
	OrthoOrbital O 2   px \
	OrthoOrbital O 2   py \
	OrthoOrbital O 2   pz \
	OrthoOrbital O 3   s \
	OrthoOrbital O 3   p \
	OrthoOrbital O 3   px \
	OrthoOrbital O 3   py \
	OrthoOrbital O 3   pz \
	OrthoOrbital H 1   s \
	OrthoOrbital H 2   s \
	OrthoOrbital H 3   s \
	OrthoOrbital H 4   s
dump End ElecDensity KEdensity BandEigs EigStats RhoAtom DOS Kpoints
dump Ionic State IonicPositions Lattice EigStats Ecomponents
dump 
dump 
dump 
dump 
dump 
dump 
dump 
dump 
dump-name jdft.$VAR
elec-cutoff 20
elec-eigen-algo Davidson
elec-ex-corr gga-PBE
elec-initial-magnetization 0.000000 no
elec-n-bands 141
elec-smearing Fermi 0.001
electronic-minimize  \
	dirUpdateScheme      FletcherReeves \
	linminMethod         DirUpdateRecommended \
	nIterations          100 \
	history              15 \
	knormThreshold       0 \
	energyDiffThreshold  1e-07 \
	nEnergyDiff          2 \
	alphaTstart          1 \
	alphaTmin            1e-10 \
	updateTestStepSize   yes \
	alphaTreduceFactor   0.1 \
	alphaTincreaseFactor 3 \
	nAlphaAdjustMax      3 \
	wolfeEnergy          0.0001 \
	wolfeGradient        0.9 \
	fdTest               no
exchange-regularization WignerSeitzTruncated
fluid LinearPCM 298.000000 1.013250
fluid-anion F- 0.5 MeanFieldLJ \
	epsBulk 1 \
	pMol 0 \
	epsInf 1 \
	Pvap 0 \
	sigmaBulk 0 \
	Rvdw 2.24877 \
	Res 0 \
	tauNuc 343133
fluid-cation Na+ 0.5 MeanFieldLJ \
	epsBulk 1 \
	pMol 0 \
	epsInf 1 \
	Pvap 0 \
	sigmaBulk 0 \
	Rvdw 2.19208 \
	Res 0 \
	tauNuc 343133
fluid-ex-corr lda-TF lda-PZ
fluid-gummel-loop 10 1.000000e-05
fluid-minimize  \
	dirUpdateScheme      PolakRibiere \
	linminMethod         DirUpdateRecommended \
	nIterations          400 \
	history              15 \
	knormThreshold       1e-11 \
	energyDiffThreshold  0 \
	nEnergyDiff          2 \
	alphaTstart          1 \
	alphaTmin            1e-10 \
	updateTestStepSize   yes \
	alphaTreduceFactor   0.1 \
	alphaTincreaseFactor 3 \
	nAlphaAdjustMax      6 \
	wolfeEnergy          0.0001 \
	wolfeGradient        0.9 \
	fdTest               no
fluid-solvent H2O 55.338 ScalarEOS \
	epsBulk 78.4 \
	pMol 0.92466 \
	epsInf 1.77 \
	Pvap 1.06736e-10 \
	sigmaBulk 4.62e-05 \
	Rvdw 2.61727 \
	Res 1.42 \
	tauNuc 343133 \
	poleEl 15 7 1
forces-output-coords Positions
ion C  -0.000339000000000   0.090158000000000   0.027035000000000 1
ion C  21.034514999999999   4.041874000000000   0.042824000000000 1
ion C  18.687942000000003   8.042873000000000  43.224390000000007 1
ion C  -7.050694000000002  12.044127000000001  43.225860000000004 1
ion C  -9.377141000000002  16.052762000000005   0.011895000000000 1
ion C   4.679036000000001   0.174611000000000   0.054373000000000 1
ion C   2.281641000000000   4.206315000000001   0.205208000000000 1
ion C  -0.139316999999999   8.022831000000000   0.198590000000000 1
ion C  -2.432395999999999  12.023731000000000   0.056882000000000 1
ion C  -4.721792000000001  16.050491000000005   0.020677000000000 1
ion C   9.373443000000002   0.062680000000000   0.000908000000000 1
ion C   7.079137000000001   4.150505000000001   0.042694000000000 1
ion C  -0.020795000000000  15.948081000000002   0.094256000000000 1
ion C   2.337023000000000  19.929569000000004   0.020417000000000 1
ion C  11.749412000000000   4.029298000000001  43.230186000000010 1
ion C   9.456182999999999   8.026787000000002   0.040704000000000 1
ion C   4.666916999999998  15.841312000000004   0.149407000000000 1
ion C   6.990393000000001  19.940703000000003   0.015443000000000 1
ion C  16.391186000000005   4.017700000000000  43.230402000000005 1
ion C  14.081757000000000   8.038538000000003  43.230359000000007 1
ion C  11.769306000000000  12.041837000000003   0.038412000000000 1
ion C   9.373035000000002  15.998747000000002   0.015529000000000 1
ion C  -0.016988000000000   2.771959000000000   0.078813000000000 1
ion C  -2.435450000000000   6.694336000000001   0.039147000000000 1
ion C  -4.746924000000000  10.692708000000001  43.232306000000008 1
ion C  -7.049676000000002  14.715228000000003  43.255967000000005 1
ion C  -9.378234000000003  18.742197000000001   0.034302000000000 1
ion C   4.675447000000000   2.892753000000000   0.121810000000000 1
ion C  -0.134713000000000  10.694334000000000   0.209836000000000 1
ion C  -2.404919000000000  14.695412000000001   0.062938000000000 1
ion C  -4.724372000000000  18.736912000000000   0.022277000000000 1
ion C   9.382341000000000   2.741429000000001  43.235247000000008 1
ion C   2.282624999999999  14.517917000000004   0.227918000000000 1
ion C  -0.013143000000001  18.632694000000004   0.027727000000000 1
ion C  14.066799000000001   2.676853000000000  43.235593000000009 1
ion C  11.773301000000000   6.703330000000001  43.255145000000006 1
ion C   9.456214000000003  10.716143000000002   0.089714000000000 1
ion C   7.073657000000001  14.592599999999999   0.113461000000000 1
ion C   4.663644999999999  18.559794000000004   0.053984000000000 1
ion C  18.720417000000001   2.684935000000001   0.001384000000000 1
ion C  16.387083000000004   6.689136000000002  43.210721000000007 1
ion C  14.080981999999999  10.710017000000002  43.240395000000007 1
ion C  11.744928000000000  14.716171000000001   0.023142000000000 1
ion C   9.358264000000004  18.676200000000005   0.006056000000000 1
ion C   4.510778999999999   9.183292000000002   5.521798000000001 1
ion N   2.166088000000000  11.909770999999999   0.451423000000000 1
ion N   7.177215999999998  12.007767000000003   0.262393000000000 1
ion N   2.150769999999999   6.802979000000001   0.423739000000000 1
ion N   7.181220000000001   6.735477000000001   0.093044000000000 1
ion Ti   4.872806999999999   9.341601000000002   1.562980000000000 1
ion O   3.955672000000000  10.962183000000001   7.524349000000001 1
ion O   5.001872000000001   7.036637000000001   6.272987000000001 1
ion O   8.006914999999999  11.921039000000002   9.784708000000002 1
ion H   8.011922000000000  13.640727000000004  10.555838000000001 1
ion H   8.452159000000000  10.668946000000002  11.119035000000002 1
ion H   6.204614999999999  11.514274000000000   8.958426000000001 1
ion H   3.321934000000001  12.560857000000002   6.789554000000002 1
ion-species /projects/musgravc/apps/jdftx-1.6.0/build/pseudopotentials/GBRV_v1.5/$ID_pbe_v1.uspp
ion-species /projects/musgravc/apps/jdftx-1.6.0/build/pseudopotentials/GBRV_v1.5/$ID_pbe_v1.2.uspp
ion-species /projects/musgravc/apps/jdftx-1.6.0/build/pseudopotentials/GBRV_v1.5/$ID_pbe_v1.4.uspp
ion-species /projects/musgravc/apps/jdftx-1.6.0/build/pseudopotentials/GBRV_v1.5/$ID_pbe_v1.5.uspp
ion-width Ecut
ionic-minimize  \
	dirUpdateScheme      L-BFGS \
	linminMethod         DirUpdateRecommended \
	nIterations          0 \
	history              15 \
	knormThreshold       0.0001 \
	energyDiffThreshold  1e-06 \
	nEnergyDiff          2 \
	alphaTstart          1 \
	alphaTmin            1e-10 \
	updateTestStepSize   yes \
	alphaTreduceFactor   0.1 \
	alphaTincreaseFactor 3 \
	nAlphaAdjustMax      3 \
	wolfeEnergy          0.0001 \
	wolfeGradient        0.9 \
	fdTest               no
kpoint   0.000000000000   0.000000000000   0.000000000000  1.00000000000000
kpoint-folding 3 3 1 
latt-move-scale 0 0 0
latt-scale 1 1 1 
lattice  \
	  23.436261999999999  -11.733459000000000    0.000000000000000  \
	   0.017994000000000   19.941849000000001    0.000000000000000  \
	   0.000000000000000    0.000000000000000   43.256312999999999 
lattice-minimize  \
	dirUpdateScheme      L-BFGS \
	linminMethod         DirUpdateRecommended \
	nIterations          0 \
	history              15 \
	knormThreshold       0 \
	energyDiffThreshold  1e-06 \
	nEnergyDiff          2 \
	alphaTstart          1 \
	alphaTmin            1e-10 \
	updateTestStepSize   yes \
	alphaTreduceFactor   0.1 \
	alphaTincreaseFactor 3 \
	nAlphaAdjustMax      3 \
	wolfeEnergy          0.0001 \
	wolfeGradient        0.9 \
	fdTest               no
lcao-params 30 1e-06 0.001
pcm-variant CANDLE
spintype z-spin
subspace-rotation-factor 1 yes
symmetries none
symmetry-threshold 0.0001
target-mu -0.1272 no

van-der-waals D3


Applied RMS atom displacement 0 bohrs to make symmetries exact.

---------- Initializing the Grid ----------
R = 
[      23.4363     -11.7335            0  ]
[     0.017994      19.9418            0  ]
[            0            0      43.2563  ]
unit cell volume = 20225.5
G =
[   0.267976   0.157673         -0  ]
[ -0.000241801   0.314933          0  ]
[          0         -0   0.145255  ]
Minimum fftbox size, Smin = [  96  96  176  ]
Chosen fftbox size, S = [  96  96  180  ]

---------- Exchange Correlation functional ----------
Initalized PBE GGA exchange.
Initalized PBE GGA correlation.

---------- Setting up pseudopotentials ----------
Width of ionic core gaussian charges (only for fluid interactions / plotting) set to 0.397384

Reading pseudopotential file '/projects/musgravc/apps/jdftx-1.6.0/build/pseudopotentials/GBRV_v1.5/c_pbe_v1.2.uspp':
  Title: C.  Created by USPP 7.3.6 on 3-2-2014
  Reference state energy: -5.406344.  4 valence electrons in orbitals:
    |200>  occupation: 2  eigenvalue: -0.504890
    |210>  occupation: 2  eigenvalue: -0.194356
  lMax: 1  lLocal: 2  QijEcut: 5
  4 projectors sampled on a log grid with 503 points:
    l: 0  eig: -0.504890  rCut: 1.3
    l: 0  eig: 0.000000  rCut: 1.3
    l: 1  eig: -0.194357  rCut: 1.3
    l: 1  eig: 0.000000  rCut: 1.3
  Partial core density with radius 1.1
  Transforming core density to a uniform radial grid of dG=0.02 with 1464 points.
  Transforming local potential to a uniform radial grid of dG=0.02 with 1464 points.
  Transforming nonlocal projectors to a uniform radial grid of dG=0.02 with 432 points.
  Transforming density augmentations to a uniform radial grid of dG=0.02 with 1464 points.
  Transforming atomic orbitals to a uniform radial grid of dG=0.02 with 432 points.
  Core radius for overlap checks: 1.30 bohrs.

Reading pseudopotential file '/projects/musgravc/apps/jdftx-1.6.0/build/pseudopotentials/GBRV_v1.5/n_pbe_v1.2.uspp':
  Title: N.  Created by USPP 7.3.6 on 3-2-2014
  Reference state energy: -9.763716.  5 valence electrons in orbitals:
    |200>  occupation: 2  eigenvalue: -0.681964
    |210>  occupation: 3  eigenvalue: -0.260726
  lMax: 1  lLocal: 2  QijEcut: 6
  4 projectors sampled on a log grid with 491 points:
    l: 0  eig: -0.681964  rCut: 1.15
    l: 0  eig: 0.000000  rCut: 1.15
    l: 1  eig: -0.260729  rCut: 1.2
    l: 1  eig: 0.500000  rCut: 1.2
  Partial core density with radius 0.8
  Transforming core density to a uniform radial grid of dG=0.02 with 1464 points.
  Transforming local potential to a uniform radial grid of dG=0.02 with 1464 points.
  Transforming nonlocal projectors to a uniform radial grid of dG=0.02 with 432 points.
  Transforming density augmentations to a uniform radial grid of dG=0.02 with 1464 points.
  Transforming atomic orbitals to a uniform radial grid of dG=0.02 with 432 points.
  Core radius for overlap checks: 1.20 bohrs.

Reading pseudopotential file '/projects/musgravc/apps/jdftx-1.6.0/build/pseudopotentials/GBRV_v1.5/ti_pbe_v1.4.uspp':
  Title: Ti.  Created by USPP 7.3.6 on 31-3-15
  Reference state energy: -59.020943.  12 valence electrons in orbitals:
    |300>  occupation: 2  eigenvalue: -2.777623
    |310>  occupation: 6  eigenvalue: -1.894596
    |400>  occupation: 2  eigenvalue: -0.438610
    |320>  occupation: 1  eigenvalue: -0.583119
  lMax: 2  lLocal: 3  QijEcut: 6
  6 projectors sampled on a log grid with 597 points:
    l: 0  eig: -2.777624  rCut: 1.8
    l: 0  eig: -0.438611  rCut: 1.8
    l: 1  eig: -1.894596  rCut: 1.8
    l: 1  eig: 0.500000  rCut: 1.8
    l: 2  eig: -0.583118  rCut: 1.8
    l: 2  eig: 0.150000  rCut: 1.8
  Partial core density with radius 0.8
  Transforming core density to a uniform radial grid of dG=0.02 with 1464 points.
  Transforming local potential to a uniform radial grid of dG=0.02 with 1464 points.
  Transforming nonlocal projectors to a uniform radial grid of dG=0.02 with 432 points.
  Transforming density augmentations to a uniform radial grid of dG=0.02 with 1464 points.
  Transforming atomic orbitals to a uniform radial grid of dG=0.02 with 432 points.
  Core radius for overlap checks: 1.80 bohrs.

Reading pseudopotential file '/projects/musgravc/apps/jdftx-1.6.0/build/pseudopotentials/GBRV_v1.5/o_pbe_v1.2.uspp':
  Title: O.  Created by USPP 7.3.6 on 3-2-2014
  Reference state energy: -15.894388.  6 valence electrons in orbitals:
    |200>  occupation: 2  eigenvalue: -0.878823
    |210>  occupation: 4  eigenvalue: -0.332131
  lMax: 2  lLocal: 2  QijEcut: 6
  5 projectors sampled on a log grid with 511 points:
    l: 0  eig: -0.878823  rCut: 1.25
    l: 0  eig: 0.000000  rCut: 1.25
    l: 1  eig: -0.332132  rCut: 1.25
    l: 1  eig: 0.000000  rCut: 1.25
    l: 2  eig: 1.000000  rCut: 1.25
  Partial core density with radius 0.7
  Transforming core density to a uniform radial grid of dG=0.02 with 1464 points.
  Transforming local potential to a uniform radial grid of dG=0.02 with 1464 points.
  Transforming nonlocal projectors to a uniform radial grid of dG=0.02 with 432 points.
  Transforming density augmentations to a uniform radial grid of dG=0.02 with 1464 points.
  Transforming atomic orbitals to a uniform radial grid of dG=0.02 with 432 points.
  Core radius for overlap checks: 1.25 bohrs.

Reading pseudopotential file '/projects/musgravc/apps/jdftx-1.6.0/build/pseudopotentials/GBRV_v1.5/h_pbe_v1.4.uspp':
  Title: H.  Created by USPP 7.3.6 on 2-4-15
  Reference state energy: -0.458849.  1 valence electrons in orbitals:
    |100>  occupation: 1  eigenvalue: -0.238595
  lMax: 0  lLocal: 1  QijEcut: 6
  2 projectors sampled on a log grid with 395 points:
    l: 0  eig: -0.238595  rCut: 1.2
    l: 0  eig: 1.000000  rCut: 1.2
  Transforming local potential to a uniform radial grid of dG=0.02 with 1464 points.
  Transforming nonlocal projectors to a uniform radial grid of dG=0.02 with 432 points.
  Transforming density augmentations to a uniform radial grid of dG=0.02 with 1464 points.
  Transforming atomic orbitals to a uniform radial grid of dG=0.02 with 432 points.
  Core radius for overlap checks: 1.20 bohrs.

Initialized 5 species with 57 total atoms.

Folded 1 k-points by 3x3x1 to 9 k-points.

---------- Setting up k-points, bands, fillings ----------
No reducable k-points. 
Computing the number of bands and number of electrons
Calculating initial fillings.
nElectrons: 234.000000   nBands: 141   nStates: 18

----- Setting up reduced wavefunction bases (one per k-point) -----
average nbasis = 86412.556 , ideal nbasis = 86404.907

----- Initializing Supercell corresponding to k-point mesh -----
Lattice vector linear combinations in supercell:
[   3   0   0  ]
[   0   3   0  ]
[   0   0   1  ]
Supercell lattice vectors:
[  70.3088  -35.2004  0  ]
[  0.053982  59.8255  0  ]
[  0  0  43.2563  ]

Initializing DFT-D3 calculator:
	Parameters set for gga-PBE functional
	s6:  1.000  s_r6:  1.217
	s8:  0.722  s_r8:  1.000
	Per-atom parameters loaded for:
	 C:  sqrtQ[a0]:  3.105  Rcov[a0]:  1.417  CN: [ 0.00 0.99 2.00 3.00 3.98 ]
	 N:  sqrtQ[a0]:  2.712  Rcov[a0]:  1.342  CN: [ 0.00 0.99 2.01 2.99 ]
	Ti:  sqrtQ[a0]:  6.288  Rcov[a0]:  2.305  CN: [ 0.00 1.83 3.87 ]
	 O:  sqrtQ[a0]:  2.594  Rcov[a0]:  1.191  CN: [ 0.00 0.99 1.99 ]
	 H:  sqrtQ[a0]:  2.007  Rcov[a0]:  0.605  CN: [ 0.91 0.00 ]

Initializing DFT-D2 calculator for fluid / solvation:
	 C:  C6:   30.35 Eh-a0^6  R0: 2.744 a0
	 N:  C6:   21.33 Eh-a0^6  R0: 2.640 a0
	Ti:  C6:  187.33 Eh-a0^6  R0: 2.952 a0
	 O:  C6:   12.14 Eh-a0^6  R0: 2.536 a0
	 H:  C6:    2.43 Eh-a0^6  R0: 1.892 a0

---------- Setting up ewald sum ----------
Optimum gaussian width for ewald sums = 5.540693 bohr.
Real space sum over 567 unit cells with max indices [  4  4  3  ]
Reciprocal space sum over 7803 terms with max indices [  8  8  13  ]

Computing DFT-D3 correction:
# coordination-number C 3.301 3.324 3.337 3.332 3.313 3.291 3.321 3.534 3.329 3.313 3.303 3.338 3.300 3.301 3.322 3.746 3.270 3.303 3.321 3.334 3.327 3.306 3.303 3.332 3.337 3.321 3.301 3.271 3.532 3.322 3.303 3.306 3.315 3.301 3.313 3.327 3.745 3.334 3.292 3.315 3.333 3.334 3.322 3.304 2.991
# coordination-number N 3.171 3.186 3.176 3.186
# coordination-number Ti 6.857
# coordination-number O 2.143 1.165 2.931
# coordination-number H 0.989 0.989 1.078 1.002
# diagonal-C6 C 24.27 24.04 23.89 23.95 24.15 24.36 24.07 21.14 23.98 24.15 24.25 23.88 24.28 24.27 24.06 19.01 24.55 24.25 24.07 23.93 24.01 24.22 24.26 23.96 23.90 24.07 24.27 24.54 21.17 24.06 24.26 24.22 24.13 24.28 24.15 24.00 19.02 23.93 24.36 24.14 23.94 23.93 24.06 24.24 25.69
# diagonal-C6 N 15.60 15.60 15.60 15.60
# diagonal-C6 Ti 321.59
# diagonal-C6 O 10.38 12.65 10.37
# diagonal-C6 H 3.10 3.10 3.06 3.09
EvdW_6 =   -0.042963
EvdW_8 =   -0.033274

---------- Allocating electronic variables ----------
Initializing wave functions:  linear combination of atomic orbitals
C pseudo-atom occupations:   s ( 2 )  p ( 2 )
N pseudo-atom occupations:   s ( 2 )  p ( 3 )
Ti pseudo-atom occupations:   s ( 2 0 )  p ( 6 )  d ( 4 )
O pseudo-atom occupations:   s ( 2 )  p ( 4 )
H pseudo-atom occupations:   s ( 1 )
	FillingsUpdate:  mu: -0.127200000  nElectrons: 234.000000  magneticMoment: [ Abs: 0.00483  Tot: +0.00028 ]
LCAOMinimize: Iter:   0  G: -369.5859217608853555  |grad|_K:  1.297e-02  alpha:  1.000e+00
	FillingsUpdate:  mu: -0.127200000  nElectrons: 234.000000  magneticMoment: [ Abs: 0.00459  Tot: +0.00004 ]
LCAOMinimize: Iter:   1  G: -371.1482959968563478  |grad|_K:  2.350e-03  alpha:  3.518e-01  linmin: -1.957e-03  cgtest: -3.157e+00  t[s]:    404.40
	FillingsUpdate:  mu: -0.127200000  nElectrons: 234.000000  magneticMoment: [ Abs: 0.00459  Tot: +0.00004 ]
LCAOMinimize: Iter:   2  G: -371.2206429366459020  |grad|_K:  2.337e-03  alpha:  1.391e-02  linmin: -9.588e-02  cgtest:  9.689e-01  t[s]:    563.24
LCAOMinimize: 	Wrong curvature in test step, increasing alphaT to 4.171590e-02.
	FillingsUpdate:  mu: -0.127200000  nElectrons: 234.000000  magneticMoment: [ Abs: 0.00459  Tot: +0.00003 ]
LCAOMinimize: Iter:   3  G: -371.2907868399243512  |grad|_K:  2.288e-03  alpha: -1.848e+00  linmin: -1.846e-01  cgtest:  9.759e-01  t[s]:    718.33
	FillingsUpdate:  mu: -0.127200000  nElectrons: 234.000000  magneticMoment: [ Abs: 0.00461  Tot: +0.00001 ]
LCAOMinimize: Iter:   4  G: -371.5100302086963779  |grad|_K:  2.305e-03  alpha:  4.436e-02  linmin: -1.819e-01  cgtest:  8.547e-01  t[s]:    877.38
LCAOMinimize: 	Wrong curvature in test step, increasing alphaT to 1.330889e-01.
	FillingsUpdate:  mu: -0.127200000  nElectrons: 234.000000  magneticMoment: [ Abs: 0.00469  Tot: +0.00010 ]
LCAOMinimize: Iter:   5  G: -372.0591830380341207  |grad|_K:  3.906e-03  alpha: -1.830e-02  linmin: -1.418e-01  cgtest:  4.413e-01  t[s]:   1032.69
LCAOMinimize: 	Step increased G by 1.062949e+01, reducing alpha to 1.257908e-02.
	FillingsUpdate:  mu: -0.127200000  nElectrons: 234.000000  magneticMoment: [ Abs: 0.00463  Tot: +0.00000 ]
LCAOMinimize: Iter:   6  G: -372.4674953892393319  |grad|_K:  1.581e-03  alpha:  1.258e-02  linmin: -4.791e-02  cgtest:  1.071e-01  t[s]:   1310.26
LCAOMinimize: 	Predicted alpha/alphaT>3.000000, increasing alphaT to 3.773724e-02.
LCAOMinimize: 	Predicted alpha/alphaT>3.000000, increasing alphaT to 1.132117e-01.
LCAOMinimize: 	Step increased G by 1.176059e+00, reducing alpha to 2.692483e-02.
	FillingsUpdate:  mu: -0.127200000  nElectrons: 234.000000  magneticMoment: [ Abs: 0.00463  Tot: -0.00000 ]
LCAOMinimize: Iter:   7  G: -372.5361965951036609  |grad|_K:  1.407e-03  alpha:  2.692e-02  linmin: -1.874e-01  cgtest:  9.803e-01  t[s]:   1669.01
LCAOMinimize: Encountered beta<0, resetting CG.
LCAOMinimize: 	Predicted alpha/alphaT>3.000000, increasing alphaT to 8.077450e-02.
LCAOMinimize: 	Predicted alpha/alphaT>3.000000, increasing alphaT to 2.423235e-01.
	FillingsUpdate:  mu: -0.127200000  nElectrons: 234.000000  magneticMoment: [ Abs: 0.00465  Tot: +0.00000 ]
LCAOMinimize: Iter:   8  G: -372.6900358900722381  |grad|_K:  7.108e-04  alpha:  1.107e-01  linmin: -1.820e-01  cgtest:  7.118e-01  t[s]:   1909.44
LCAOMinimize: Encountered beta<0, resetting CG.
	FillingsUpdate:  mu: -0.127200000  nElectrons: 234.000000  magneticMoment: [ Abs: 0.00471  Tot: -0.00001 ]
LCAOMinimize: Iter:   9  G: -372.7443436172669067  |grad|_K:  1.953e-04  alpha:  2.255e-01  linmin: -3.662e-02  cgtest:  3.752e-01  t[s]:   2068.52
LCAOMinimize: Encountered beta<0, resetting CG.
	FillingsUpdate:  mu: -0.127200000  nElectrons: 234.000000  magneticMoment: [ Abs: 0.00474  Tot: -0.00001 ]
LCAOMinimize: Iter:  10  G: -372.7468582807830444  |grad|_K:  1.700e-04  alpha:  1.521e-01  linmin:  4.242e-03  cgtest: -1.282e-01  t[s]:   2227.35
	FillingsUpdate:  mu: -0.127200000  nElectrons: 234.000000  magneticMoment: [ Abs: 0.00484  Tot: -0.00003 ]
LCAOMinimize: Iter:  11  G: -372.7496872871838605  |grad|_K:  8.146e-05  alpha:  2.499e-01  linmin:  7.279e-02  cgtest: -1.786e-01  t[s]:   2386.04
	FillingsUpdate:  mu: -0.127200000  nElectrons: 234.000000  magneticMoment: [ Abs: 0.00499  Tot: -0.00006 ]
LCAOMinimize: Iter:  12  G: -372.7501679169353110  |grad|_K:  9.182e-05  alpha:  4.694e-01  linmin:  1.893e-02  cgtest:  2.187e-01  t[s]:   2545.90
	FillingsUpdate:  mu: -0.127200000  nElectrons: 234.000000  magneticMoment: [ Abs: 0.00502  Tot: -0.00006 ]
LCAOMinimize: Iter:  13  G: -372.7503956494043678  |grad|_K:  5.144e-05  alpha:  9.893e-02  linmin:  3.472e-02  cgtest:  8.252e-02  t[s]:   2705.10
	FillingsUpdate:  mu: -0.127200000  nElectrons: 234.000000  magneticMoment: [ Abs: 0.00506  Tot: -0.00007 ]
LCAOMinimize: Iter:  14  G: -372.7505386023355527  |grad|_K:  3.057e-05  alpha:  1.408e-01  linmin: -1.678e-01  cgtest:  8.493e-01  t[s]:   2863.97
LCAOMinimize: Encountered beta<0, resetting CG.
	FillingsUpdate:  mu: -0.127200000  nElectrons: 234.000000  magneticMoment: [ Abs: 0.00508  Tot: -0.00008 ]
LCAOMinimize: Iter:  15  G: -372.7506568442498747  |grad|_K:  2.556e-05  alpha:  2.287e-01  linmin: -3.964e-02  cgtest:  5.282e-01  t[s]:   3023.22
LCAOMinimize: 	Predicted alpha/alphaT>3.000000, increasing alphaT to 6.859748e-01.
	FillingsUpdate:  mu: -0.127200000  nElectrons: 234.000000  magneticMoment: [ Abs: 0.00511  Tot: -0.00008 ]
LCAOMinimize: Iter:  16  G: -372.7507956833845810  |grad|_K:  3.745e-05  alpha:  2.271e-01  linmin:  1.592e-02  cgtest: -4.381e-01  t[s]:   3223.58
	FillingsUpdate:  mu: -0.127200000  nElectrons: 234.000000  magneticMoment: [ Abs: 0.00515  Tot: -0.00008 ]
LCAOMinimize: Iter:  17  G: -372.7508454144244752  |grad|_K:  4.371e-05  alpha:  8.355e-02  linmin:  2.349e-03  cgtest:  9.705e-01  t[s]:   3384.10
	FillingsUpdate:  mu: -0.127200000  nElectrons: 234.000000  magneticMoment: [ Abs: 0.00517  Tot: -0.00009 ]
LCAOMinimize: Iter:  18  G: -372.7508729435940609  |grad|_K:  1.577e-05  alpha:  4.574e-02  linmin: -6.927e-02  cgtest:  9.638e-01  t[s]:   3542.96
LCAOMinimize: Encountered beta<0, resetting CG.
LCAOMinimize: 	Step increased G by 2.288988e-08, reducing alpha to 1.931526e-03.
	FillingsUpdate:  mu: -0.127200000  nElectrons: 234.000000  magneticMoment: [ Abs: 0.00517  Tot: -0.00009 ]
LCAOMinimize: Iter:  19  G: -372.7508729915844583  |grad|_K:  1.536e-05  alpha:  1.932e-03  linmin: -9.751e-02  cgtest:  9.999e-01  t[s]:   3821.31
LCAOMinimize: Encountered beta<0, resetting CG.
	FillingsUpdate:  mu: -0.127200000  nElectrons: 234.000000  magneticMoment: [ Abs: 0.00517  Tot: -0.00009 ]
LCAOMinimize: Iter:  20  G: -372.7508730137899420  |grad|_K:  1.514e-05  alpha:  1.065e-03  linmin: -9.775e-02  cgtest:  9.999e-01  t[s]:   3980.39
LCAOMinimize: Encountered beta<0, resetting CG.
LCAOMinimize: Converged (|Delta G|<1.000000e-06 for 2 iters).
----- createFluidSolver() ----- (Fluid-side solver setup)
   Initializing fluid molecule 'H2O'
     Initializing site 'O'
       Electron density: proportional to exp(-r/0.36935)*erfc((r-0.51523)/0.36823) with norm 6.826
       Charge density: gaussian nuclear width 0.478731 with net site charge 0.826
       Polarizability: cuspless exponential with width 0.32 and norm 3.73
       Hard sphere radius: 2.57003 bohrs
       Positions in reference frame:
         [ +0.000000 +0.000000 +0.000000 ]
     Initializing site 'H'
       Electron density: proportional to exp(-r/0.34641)*erfc((r-0)/0.390882) with norm 0.587
       Charge density: gaussian nuclear width 0.377945 with net site charge -0.413
       Polarizability: cuspless exponential with width 0.39 and norm 3.3
       Positions in reference frame:
         [ +0.000000 -1.441945 +1.122523 ]
         [ +0.000000 +1.441945 +1.122523 ]
     Net charge: 0   dipole magnitude: 0.927204
     Initializing spherical shell mfKernel with radius 2.61727 Bohr
     deltaS corrections:
       site 'O': -7.54299
       site 'H': -6.83917
   Initializing fluid molecule 'Na+'
     Initializing site 'Na'
       Electron density: proportional to exp(-r/0.19682)*erfc((r-0.71491)/0.41314) with norm 8.1383
       Charge density: gaussian nuclear width 0.365347 with net site charge -1
       Hard sphere radius: 1.86327 bohrs
       Positions in reference frame:
         [ +0.000000 +0.000000 +0.000000 ]
     Net charge: -1   dipole magnitude: 0
     Initializing gaussian mfKernel with width: 1.55004 Bohr
     deltaS corrections:
       site 'Na': -22.3555
   Initializing fluid molecule 'F-'
     Initializing site 'F'
       Electron density: proportional to exp(-r/0.38886)*erfc((r-0)/0.438782) with norm 8
       Charge density: gaussian nuclear width 0.374796 with net site charge 1
       Hard sphere radius: 2.39995 bohrs
       Positions in reference frame:
         [ +0.000000 +0.000000 +0.000000 ]
     Net charge: 1   dipole magnitude: 0
     Initializing gaussian mfKernel with width: 1.59012 Bohr
     deltaS corrections:
       site 'F': -9.04335

Correction to mu due to finite nuclear width = -0.0114793
   Cavity determined by nc: 0.00142 and sigma: 0.707107
   Nonlocal vdW cavity from gaussian model electron density with norm = 8 and sigma = 0.993594 bohr
   Charge asymmetry in cavity with sensitivity pCavity = 36.5 e-bohr/Eh
   Electrostatic cavity expanded by eta = 1.46 bohrs
   Weighted density cavitation model constrained by Nbulk: 0.0049383 bohr^-3, Pvap: 3.14029 kPa, Rvdw: 2.61727 bohr and sigmaBulk: 4.62e-05 Eh/bohr^2 at T: 298 K.
   Weighted density dispersion model using vdW pair potentials with single solvent site with sqrtC6eff: 0.77 SI.


---- Citations for features of the code used in this run ----

   Software package:
      R. Sundararaman, K. Letchworth-Weaver, K.A. Schwarz, D. Gunceler, Y. Ozhabes and T.A. Arias, 'JDFTx: software for joint density-functional theory', SoftwareX 6, 278 (2017)

   gga-PBE exchange-correlation functional:
      J.P. Perdew, K. Burke and M. Ernzerhof, Phys. Rev. Lett. 77, 3865 (1996)

   Pseudopotentials:
      KF Garrity, JW Bennett, KM Rabe and D Vanderbilt, Comput. Mater. Sci. 81, 446 (2014)

   DFT-D3 dispersion correction:
      S. Grimme, J. Antony, S. Ehrlich and H. Krieg, J. Chem. Phys. 132, 154104 (2010)

   DFT-D2 dispersion correction:
      S. Grimme, J. Comput. Chem. 27, 1787 (2006)

   Charge-asymmetric nonlocally-determined local-electric (CANDLE) solvation model:
      R. Sundararaman and W.A. Goddard III, J. Chem. Phys. 142, 064107 (2015)

   Total energy minimization with Auxiliary Hamiltonian:
      C. Freysoldt, S. Boeck, and J. Neugebauer, Phys. Rev. B 79, 241103(R) (2009)

   Grand-canonical (fixed-potential) DFT:
      R. Sundararaman, W. A. Goddard III and T. A. Arias, J. Chem. Phys. 146, 114104 (2017)

   Linear-tetrahedron sampling for density of states:
      G. Lehmann and M. Taut, Phys. status solidi (b) 54, 469 (1972)

This list may not be complete. Please suggest additional citations or
report any other bugs at https://github.com/shankar1729/jdftx/issues

Initialization completed successfully at t[s]:   4002.30


Computing DFT-D3 correction:
# coordination-number C 3.301 3.324 3.337 3.332 3.313 3.291 3.321 3.534 3.329 3.313 3.303 3.338 3.300 3.301 3.322 3.746 3.270 3.303 3.321 3.334 3.327 3.306 3.303 3.332 3.337 3.321 3.301 3.271 3.532 3.322 3.303 3.306 3.315 3.301 3.313 3.327 3.745 3.334 3.292 3.315 3.333 3.334 3.322 3.304 2.991
# coordination-number N 3.171 3.186 3.176 3.186
# coordination-number Ti 6.857
# coordination-number O 2.143 1.165 2.931
# coordination-number H 0.989 0.989 1.078 1.002
# diagonal-C6 C 24.27 24.04 23.89 23.95 24.15 24.36 24.07 21.14 23.98 24.15 24.25 23.88 24.28 24.27 24.06 19.01 24.55 24.25 24.07 23.93 24.01 24.22 24.26 23.96 23.90 24.07 24.27 24.54 21.17 24.06 24.26 24.22 24.13 24.28 24.15 24.00 19.02 23.93 24.36 24.14 23.94 23.93 24.06 24.24 25.69
# diagonal-C6 N 15.60 15.60 15.60 15.60
# diagonal-C6 Ti 321.59
# diagonal-C6 O 10.38 12.65 10.37
# diagonal-C6 H 3.10 3.10 3.06 3.09
EvdW_6 =   -0.042963
EvdW_8 =   -0.033274
Fluid solver invoked on fresh (random / LCAO) wavefunctions
Running a vacuum solve first:

-------- Initial electronic minimization -----------
	FillingsUpdate:  mu: -0.134456065  nElectrons: 234.000000  magneticMoment: [ Abs: 0.00517  Tot: -0.00009 ]
ElecMinimize: Iter:   0  G: -372.749134048469728  |grad|_K:  1.422e-04  alpha:  1.000e+00
	FillingsUpdate:  mu: -0.073719686  nElectrons: 234.000000  magneticMoment: [ Abs: 0.00320  Tot: -0.00014 ]
	SubspaceRotationAdjust: set factor to 1.01
ElecMinimize: Iter:   1  G: -375.750106360331188  |grad|_K:  5.113e-05  alpha:  6.842e-01  linmin:  1.785e-05  t[s]:   4264.82
	FillingsUpdate:  mu: -0.033707273  nElectrons: 234.000000  magneticMoment: [ Abs: 0.00353  Tot: -0.00078 ]
	SubspaceRotationAdjust: set factor to 0.675
ElecMinimize: Iter:   2  G: -375.812099344186720  |grad|_K:  6.743e-05  alpha:  1.203e-01  linmin:  1.955e-03  t[s]:   4425.08
ElecMinimize: 	Step increased G by 2.120505e-02, reducing alpha to 2.178189e-02.
	FillingsUpdate:  mu: -0.034328504  nElectrons: 234.000000  magneticMoment: [ Abs: 0.00347  Tot: -0.00083 ]
	SubspaceRotationAdjust: set factor to 0.485
ElecMinimize: Iter:   3  G: -375.842034352553696  |grad|_K:  5.725e-05  alpha:  2.178e-02  linmin: -3.516e-03  t[s]:   4690.50
ElecMinimize: 	Predicted alpha/alphaT>3.000000, increasing alphaT to 6.534568e-02.
	FillingsUpdate:  mu: -0.058832751  nElectrons: 234.000000  magneticMoment: [ Abs: 0.00271  Tot: -0.00034 ]
	SubspaceRotationAdjust: set factor to 0.224
ElecMinimize: Iter:   4  G: -375.987656059864946  |grad|_K:  2.311e-05  alpha:  1.139e-01  linmin: -2.332e-03  t[s]:   4891.13
ElecMinimize: 	Predicted alpha/alphaT>3.000000, increasing alphaT to 3.418268e-01.
	FillingsUpdate:  mu: -0.051905747  nElectrons: 234.000000  magneticMoment: [ Abs: 0.00269  Tot: -0.00051 ]
	SubspaceRotationAdjust: set factor to 0.351
ElecMinimize: Iter:   5  G: -376.007406380066243  |grad|_K:  1.718e-05  alpha:  7.121e-02  linmin: -6.018e-03  t[s]:   5091.77
ElecMinimize: 	Predicted alpha/alphaT>3.000000, increasing alphaT to 2.136382e-01.
	FillingsUpdate:  mu: -0.064901343  nElectrons: 234.000000  magneticMoment: [ Abs: 0.00392  Tot: -0.00311 ]
	SubspaceRotationAdjust: set factor to 0.197
ElecMinimize: Iter:   6  G: -376.033798670236592  |grad|_K:  3.896e-05  alpha:  2.791e-01  linmin:  1.013e-02  t[s]:   5293.69
ElecMinimize: 	Bad step direction: g.d > 0.
ElecMinimize: 	Undoing step.
ElecMinimize: 	Step failed: resetting search direction.
	FillingsUpdate:  mu: -0.064901343  nElectrons: 234.000000  magneticMoment: [ Abs: 0.00392  Tot: -0.00311 ]
	SubspaceRotationAdjust: set factor to 0.12
	SubspaceRotationAdjust: resetting CG because factor has changed by 0.120436
ElecMinimize: 	State modified externally: resetting search direction.
ElecMinimize: Iter:   7  G: -376.033798670236706  |grad|_K:  2.511e-05  alpha:  0.000e+00
	FillingsUpdate:  mu: -0.033857886  nElectrons: 234.000000  magneticMoment: [ Abs: 0.00287  Tot: -0.00170 ]
	SubspaceRotationAdjust: set factor to 0.118
ElecMinimize: Iter:   8  G: -376.064929445852954  |grad|_K:  9.772e-06  alpha:  2.405e-01  linmin: -1.642e-02  t[s]:   5664.18
	FillingsUpdate:  mu: -0.056550496  nElectrons: 234.000000  magneticMoment: [ Abs: 0.00242  Tot: -0.00122 ]
	SubspaceRotationAdjust: set factor to 0.101
ElecMinimize: Iter:   9  G: -376.081499978266947  |grad|_K:  9.391e-06  alpha:  6.934e-01  linmin:  9.961e-05  t[s]:   5824.88
	FillingsUpdate:  mu: -0.053051042  nElectrons: 234.000000  magneticMoment: [ Abs: 0.00241  Tot: -0.00137 ]
	SubspaceRotationAdjust: set factor to 0.131
ElecMinimize: Iter:  10  G: -376.093646745301498  |grad|_K:  5.379e-06  alpha:  6.307e-01  linmin:  8.512e-05  t[s]:   5985.60
	FillingsUpdate:  mu: -0.044729376  nElectrons: 234.000000  magneticMoment: [ Abs: 0.00298  Tot: -0.00231 ]
	SubspaceRotationAdjust: set factor to 0.173
ElecMinimize: Iter:  11  G: -376.098072968879080  |grad|_K:  3.133e-06  alpha:  7.029e-01  linmin:  4.456e-04  t[s]:   6146.26
	FillingsUpdate:  mu: -0.048559191  nElectrons: 234.000000  magneticMoment: [ Abs: 0.00381  Tot: -0.00337 ]
	SubspaceRotationAdjust: set factor to 0.155
ElecMinimize: Iter:  12  G: -376.099506446518319  |grad|_K:  3.475e-06  alpha:  6.817e-01  linmin:  5.041e-04  t[s]:   6306.60
	FillingsUpdate:  mu: -0.043906487  nElectrons: 234.000000  magneticMoment: [ Abs: 0.00453  Tot: -0.00405 ]
	SubspaceRotationAdjust: set factor to 0.17
ElecMinimize: Iter:  13  G: -376.100571824990880  |grad|_K:  2.247e-06  alpha:  4.279e-01  linmin: -5.091e-06  t[s]:   6467.62
	FillingsUpdate:  mu: -0.046841507  nElectrons: 234.000000  magneticMoment: [ Abs: 0.00594  Tot: -0.00535 ]
	SubspaceRotationAdjust: set factor to 0.188
ElecMinimize: Iter:  14  G: -376.101493452849297  |grad|_K:  2.152e-06  alpha:  8.290e-01  linmin: -2.196e-05  t[s]:   6628.58
	FillingsUpdate:  mu: -0.048394081  nElectrons: 234.000000  magneticMoment: [ Abs: 0.00771  Tot: -0.00713 ]
	SubspaceRotationAdjust: set factor to 0.153
ElecMinimize: Iter:  15  G: -376.101891482708027  |grad|_K:  1.677e-06  alpha:  3.775e-01  linmin: -9.043e-05  t[s]:   6789.06
	FillingsUpdate:  mu: -0.047550946  nElectrons: 234.000000  magneticMoment: [ Abs: 0.01091  Tot: -0.01023 ]
	SubspaceRotationAdjust: set factor to 0.154
ElecMinimize: Iter:  16  G: -376.102264726115891  |grad|_K:  1.342e-06  alpha:  5.928e-01  linmin:  3.293e-06  t[s]:   6949.74
	FillingsUpdate:  mu: -0.047344579  nElectrons: 234.000000  magneticMoment: [ Abs: 0.01493  Tot: -0.01415 ]
	SubspaceRotationAdjust: set factor to 0.164
ElecMinimize: Iter:  17  G: -376.102470871278229  |grad|_K:  1.056e-06  alpha:  5.222e-01  linmin:  2.205e-06  t[s]:   7110.93
	FillingsUpdate:  mu: -0.047966367  nElectrons: 234.000000  magneticMoment: [ Abs: 0.02079  Tot: -0.01993 ]
	SubspaceRotationAdjust: set factor to 0.136
ElecMinimize: Iter:  18  G: -376.102593220143604  |grad|_K:  8.166e-07  alpha:  4.994e-01  linmin:  3.871e-05  t[s]:   7271.52
	FillingsUpdate:  mu: -0.047862417  nElectrons: 234.000000  magneticMoment: [ Abs: 0.02680  Tot: -0.02577 ]
	SubspaceRotationAdjust: set factor to 0.121
ElecMinimize: Iter:  19  G: -376.102654534079363  |grad|_K:  6.070e-07  alpha:  4.223e-01  linmin: -1.250e-05  t[s]:   7432.45
	FillingsUpdate:  mu: -0.048055177  nElectrons: 234.000000  magneticMoment: [ Abs: 0.03827  Tot: -0.03701 ]
	SubspaceRotationAdjust: set factor to 0.142
ElecMinimize: Iter:  20  G: -376.102705697240594  |grad|_K:  4.790e-07  alpha:  6.309e-01  linmin: -4.603e-06  t[s]:   7592.86
	FillingsUpdate:  mu: -0.048285262  nElectrons: 234.000000  magneticMoment: [ Abs: 0.05480  Tot: -0.05328 ]
	SubspaceRotationAdjust: set factor to 0.132
ElecMinimize: Iter:  21  G: -376.102737318630489  |grad|_K:  4.920e-07  alpha:  6.275e-01  linmin:  5.889e-05  t[s]:   7753.21
	FillingsUpdate:  mu: -0.048182371  nElectrons: 234.000000  magneticMoment: [ Abs: 0.08585  Tot: -0.08378 ]
	SubspaceRotationAdjust: set factor to 0.161
ElecMinimize: Iter:  22  G: -376.102771509097863  |grad|_K:  5.313e-07  alpha:  6.503e-01  linmin: -2.616e-05  t[s]:   7915.08
	FillingsUpdate:  mu: -0.049496920  nElectrons: 234.000000  magneticMoment: [ Abs: 0.22762  Tot: -0.22290 ]
	SubspaceRotationAdjust: set factor to 0.171
ElecMinimize: Iter:  23  G: -376.102831211782529  |grad|_K:  1.358e-06  alpha:  1.853e+00  linmin:  1.094e-03  t[s]:   8077.07
ElecMinimize: 	Step increased G by 8.279342e-05, reducing alpha to 1.479695e-04.
ElecMinimize: 	Step increased G by 8.297661e-05, reducing alpha to 1.479695e-05.
ElecMinimize: 	Step increased G by 8.299572e-05, reducing alpha to 1.479695e-06.
ElecMinimize: 	Step failed to reduce G after 3 attempts. Quitting step.
ElecMinimize: 	Undoing step.
ElecMinimize: 	Step failed: resetting search direction.
	FillingsUpdate:  mu: -0.049673533  nElectrons: 234.000000  magneticMoment: [ Abs: 0.22641  Tot: -0.22291 ]
	SubspaceRotationAdjust: set factor to 0.19
ElecMinimize: Iter:  24  G: -376.102748215891211  |grad|_K:  1.535e-06  alpha:  1.480e-06
	FillingsUpdate:  mu: -0.048972324  nElectrons: 234.000000  magneticMoment: [ Abs: 0.23825  Tot: -0.23351 ]
	SubspaceRotationAdjust: set factor to 0.132
ElecMinimize: Iter:  25  G: -376.102976973366196  |grad|_K:  1.569e-06  alpha:  5.367e-01  linmin:  5.571e-03  t[s]:   8696.87
	FillingsUpdate:  mu: -0.050504583  nElectrons: 234.000000  magneticMoment: [ Abs: 0.28410  Tot: -0.27824 ]
	SubspaceRotationAdjust: set factor to 0.128
ElecMinimize: Iter:  26  G: -376.103159218191138  |grad|_K:  1.061e-06  alpha:  3.689e-01  linmin:  1.561e-04  t[s]:   8854.70
	FillingsUpdate:  mu: -0.050665498  nElectrons: 234.000000  magneticMoment: [ Abs: 0.31113  Tot: -0.30351 ]
	SubspaceRotationAdjust: set factor to 0.122
ElecMinimize: Iter:  27  G: -376.103274124039217  |grad|_K:  8.692e-07  alpha:  4.652e-01  linmin: -4.753e-04  t[s]:   9015.50
	FillingsUpdate:  mu: -0.049850466  nElectrons: 234.000000  magneticMoment: [ Abs: 0.31596  Tot: -0.30614 ]
	SubspaceRotationAdjust: set factor to 0.121
ElecMinimize: Iter:  28  G: -376.103340648189317  |grad|_K:  5.913e-07  alpha:  3.981e-01  linmin: -3.907e-04  t[s]:   9176.05
	FillingsUpdate:  mu: -0.049950217  nElectrons: 234.000000  magneticMoment: [ Abs: 0.32320  Tot: -0.31174 ]
	SubspaceRotationAdjust: set factor to 0.163
ElecMinimize: Iter:  29  G: -376.103374592422426  |grad|_K:  3.996e-07  alpha:  4.286e-01  linmin: -2.069e-04  t[s]:   9336.52
	FillingsUpdate:  mu: -0.050370095  nElectrons: 234.000000  magneticMoment: [ Abs: 0.33573  Tot: -0.32289 ]
	SubspaceRotationAdjust: set factor to 0.158
ElecMinimize: Iter:  30  G: -376.103394698759587  |grad|_K:  4.118e-07  alpha:  5.634e-01  linmin: -5.027e-05  t[s]:   9497.77
	FillingsUpdate:  mu: -0.050245259  nElectrons: 234.000000  magneticMoment: [ Abs: 0.34376  Tot: -0.32873 ]
	SubspaceRotationAdjust: set factor to 0.198
ElecMinimize: Iter:  31  G: -376.103412827685759  |grad|_K:  3.008e-07  alpha:  4.868e-01  linmin: -6.095e-05  t[s]:   9658.41
	FillingsUpdate:  mu: -0.050114587  nElectrons: 234.000000  magneticMoment: [ Abs: 0.35585  Tot: -0.33822 ]
	SubspaceRotationAdjust: set factor to 0.222
ElecMinimize: Iter:  32  G: -376.103427190513969  |grad|_K:  3.313e-07  alpha:  7.076e-01  linmin: -8.136e-05  t[s]:   9818.79
	FillingsUpdate:  mu: -0.050303492  nElectrons: 234.000000  magneticMoment: [ Abs: 0.37744  Tot: -0.35758 ]
	SubspaceRotationAdjust: set factor to 0.196
ElecMinimize: Iter:  33  G: -376.103438260454311  |grad|_K:  3.431e-07  alpha:  4.457e-01  linmin: -3.700e-06  t[s]:   9978.96
	FillingsUpdate:  mu: -0.050028705  nElectrons: 234.000000  magneticMoment: [ Abs: 0.41333  Tot: -0.38827 ]
	SubspaceRotationAdjust: set factor to 0.212
ElecMinimize: Iter:  34  G: -376.103455565715080  |grad|_K:  3.940e-07  alpha:  6.631e-01  linmin: -3.522e-05  t[s]:  10139.09
	FillingsUpdate:  mu: -0.049455903  nElectrons: 234.000000  magneticMoment: [ Abs: 0.53220  Tot: -0.49212 ]
	SubspaceRotationAdjust: set factor to 0.236
ElecMinimize: Iter:  35  G: -376.103496129153768  |grad|_K:  7.750e-07  alpha:  1.242e+00  linmin:  1.199e-04  t[s]:  10299.59
	FillingsUpdate:  mu: -0.049188073  nElectrons: 234.000000  magneticMoment: [ Abs: 0.66217  Tot: -0.60716 ]
	SubspaceRotationAdjust: set factor to 0.242
ElecMinimize: Iter:  36  G: -376.103554126536494  |grad|_K:  1.134e-06  alpha:  3.250e-01  linmin: -2.652e-04  t[s]:  10459.83
	FillingsUpdate:  mu: -0.047824543  nElectrons: 234.000000  magneticMoment: [ Abs: 1.01282  Tot: -0.92976 ]
	SubspaceRotationAdjust: set factor to 0.18
ElecMinimize: Iter:  37  G: -376.103672712980938  |grad|_K:  1.769e-06  alpha:  4.235e-01  linmin:  8.161e-04  t[s]:  10620.11
ElecMinimize: 	Bad step direction: g.d > 0.
ElecMinimize: 	Undoing step.
ElecMinimize: 	Step failed: resetting search direction.
	FillingsUpdate:  mu: -0.047824543  nElectrons: 234.000000  magneticMoment: [ Abs: 1.01282  Tot: -0.92976 ]
	SubspaceRotationAdjust: set factor to 0.149
ElecMinimize: Iter:  38  G: -376.103672712981847  |grad|_K:  1.611e-06  alpha:  0.000e+00
	FillingsUpdate:  mu: -0.049284167  nElectrons: 234.000000  magneticMoment: [ Abs: 0.98364  Tot: -0.88985 ]
	SubspaceRotationAdjust: set factor to 0.135
ElecMinimize: Iter:  39  G: -376.103999100386091  |grad|_K:  1.093e-06  alpha:  5.751e-01  linmin:  2.241e-04  t[s]:  10898.55
	FillingsUpdate:  mu: -0.049221063  nElectrons: 234.000000  magneticMoment: [ Abs: 1.03439  Tot: -0.93482 ]
	SubspaceRotationAdjust: set factor to 0.141
ElecMinimize: Iter:  40  G: -376.104257672657923  |grad|_K:  1.195e-06  alpha:  9.898e-01  linmin: -1.059e-04  t[s]:  11058.79
	FillingsUpdate:  mu: -0.048359393  nElectrons: 234.000000  magneticMoment: [ Abs: 1.11022  Tot: -0.99055 ]
	SubspaceRotationAdjust: set factor to 0.152
ElecMinimize: Iter:  41  G: -376.104637167505985  |grad|_K:  1.153e-06  alpha:  1.177e+00  linmin: -1.096e-04  t[s]:  11219.30
	FillingsUpdate:  mu: -0.048250436  nElectrons: 234.000000  magneticMoment: [ Abs: 1.16369  Tot: -1.03403 ]
	SubspaceRotationAdjust: set factor to 0.156
ElecMinimize: Iter:  42  G: -376.104828953400329  |grad|_K:  9.476e-07  alpha:  6.234e-01  linmin: -3.611e-05  t[s]:  11379.57
	FillingsUpdate:  mu: -0.048223546  nElectrons: 234.000000  magneticMoment: [ Abs: 1.18915  Tot: -1.04577 ]
	SubspaceRotationAdjust: set factor to 0.178
ElecMinimize: Iter:  43  G: -376.104949919245428  |grad|_K:  5.419e-07  alpha:  6.076e-01  linmin: -5.038e-05  t[s]:  11539.58
	FillingsUpdate:  mu: -0.048200006  nElectrons: 234.000000  magneticMoment: [ Abs: 1.20520  Tot: -1.05341 ]
	SubspaceRotationAdjust: set factor to 0.214
ElecMinimize: Iter:  44  G: -376.105004290829754  |grad|_K:  4.253e-07  alpha:  8.355e-01  linmin: -1.983e-05  t[s]:  11700.17
	FillingsUpdate:  mu: -0.048248474  nElectrons: 234.000000  magneticMoment: [ Abs: 1.21372  Tot: -1.05454 ]
	SubspaceRotationAdjust: set factor to 0.267
ElecMinimize: Iter:  45  G: -376.105028871880165  |grad|_K:  3.665e-07  alpha:  6.174e-01  linmin:  5.072e-08  t[s]:  11860.98
	FillingsUpdate:  mu: -0.048193847  nElectrons: 234.000000  magneticMoment: [ Abs: 1.22876  Tot: -1.05669 ]
	SubspaceRotationAdjust: set factor to 0.312
ElecMinimize: Iter:  46  G: -376.105054013697554  |grad|_K:  3.473e-07  alpha:  8.521e-01  linmin: -4.078e-06  t[s]:  12022.13
	FillingsUpdate:  mu: -0.048073072  nElectrons: 234.000000  magneticMoment: [ Abs: 1.24958  Tot: -1.07161 ]
	SubspaceRotationAdjust: set factor to 0.283
ElecMinimize: Iter:  47  G: -376.105067765422234  |grad|_K:  3.184e-07  alpha:  5.276e-01  linmin:  8.675e-06  t[s]:  12183.72
	FillingsUpdate:  mu: -0.048277557  nElectrons: 234.000000  magneticMoment: [ Abs: 1.25536  Tot: -1.06499 ]
	SubspaceRotationAdjust: set factor to 0.215
ElecMinimize: Iter:  48  G: -376.105077726239301  |grad|_K:  2.517e-07  alpha:  4.474e-01  linmin:  1.364e-05  t[s]:  12346.57
	FillingsUpdate:  mu: -0.048166462  nElectrons: 234.000000  magneticMoment: [ Abs: 1.27024  Tot: -1.07399 ]
	SubspaceRotationAdjust: set factor to 0.218
ElecMinimize: Iter:  49  G: -376.105084726015434  |grad|_K:  1.547e-07  alpha:  5.062e-01  linmin: -8.619e-06  t[s]:  12499.98
	FillingsUpdate:  mu: -0.048139810  nElectrons: 234.000000  magneticMoment: [ Abs: 1.27708  Tot: -1.07647 ]
	SubspaceRotationAdjust: set factor to 0.235
ElecMinimize: Iter:  50  G: -376.105088119887796  |grad|_K:  1.103e-07  alpha:  6.439e-01  linmin:  9.177e-07  t[s]:  12656.65
	FillingsUpdate:  mu: -0.048207617  nElectrons: 234.000000  magneticMoment: [ Abs: 1.27884  Tot: -1.07504 ]
	SubspaceRotationAdjust: set factor to 0.228
ElecMinimize: Iter:  51  G: -376.105089740458595  |grad|_K:  7.642e-08  alpha:  6.073e-01  linmin:  6.378e-07  t[s]:  12798.29
	FillingsUpdate:  mu: -0.048180895  nElectrons: 234.000000  magneticMoment: [ Abs: 1.28120  Tot: -1.07715 ]
	SubspaceRotationAdjust: set factor to 0.194
ElecMinimize: Iter:  52  G: -376.105090369992297  |grad|_K:  5.064e-08  alpha:  4.912e-01  linmin:  9.272e-07  t[s]:  12937.11
	FillingsUpdate:  mu: -0.048196581  nElectrons: 234.000000  magneticMoment: [ Abs: 1.28074  Tot: -1.07591 ]
	SubspaceRotationAdjust: set factor to 0.204
ElecMinimize: Iter:  53  G: -376.105090648760438  |grad|_K:  3.538e-08  alpha:  4.955e-01  linmin:  2.414e-07  t[s]:  13075.96
	FillingsUpdate:  mu: -0.048198620  nElectrons: 234.000000  magneticMoment: [ Abs: 1.28062  Tot: -1.07575 ]
	SubspaceRotationAdjust: set factor to 0.243
ElecMinimize: Iter:  54  G: -376.105090837522710  |grad|_K:  3.177e-08  alpha:  6.877e-01  linmin:  1.724e-06  t[s]:  13214.49
	FillingsUpdate:  mu: -0.048185155  nElectrons: 234.000000  magneticMoment: [ Abs: 1.28033  Tot: -1.07573 ]
	SubspaceRotationAdjust: set factor to 0.273
ElecMinimize: Iter:  55  G: -376.105091009539876  |grad|_K:  2.862e-08  alpha:  7.784e-01  linmin:  5.393e-07  t[s]:  13353.13
	FillingsUpdate:  mu: -0.048193875  nElectrons: 234.000000  magneticMoment: [ Abs: 1.27927  Tot: -1.07472 ]
	SubspaceRotationAdjust: set factor to 0.263
ElecMinimize: Iter:  56  G: -376.105091115963546  |grad|_K:  2.476e-08  alpha:  5.920e-01  linmin:  5.610e-07  t[s]:  13492.03
	FillingsUpdate:  mu: -0.048188668  nElectrons: 234.000000  magneticMoment: [ Abs: 1.27905  Tot: -1.07503 ]
	SubspaceRotationAdjust: set factor to 0.214
ElecMinimize: Iter:  57  G: -376.105091175276186  |grad|_K:  1.811e-08  alpha:  4.417e-01  linmin:  2.725e-07  t[s]:  13630.77
	FillingsUpdate:  mu: -0.048193018  nElectrons: 234.000000  magneticMoment: [ Abs: 1.27827  Tot: -1.07446 ]
	SubspaceRotationAdjust: set factor to 0.216
ElecMinimize: Iter:  58  G: -376.105091213203366  |grad|_K:  1.284e-08  alpha:  5.272e-01  linmin:  4.872e-07  t[s]:  13769.65
ElecMinimize: Converged (|Delta G|<1.000000e-07 for 2 iters).
Setting wave functions to eigenvectors of Hamiltonian
Converging empty states (this may take a while): |deigs|: 3.226e-03
Vacuum energy after initial minimize, F = -376.105091213203366

Shifting auxilliary hamiltonian by -0.079007 to set nElectrons=234.000000

-------- Electronic minimization -----------
	Linear fluid (dielectric constant: 78.4, screening length: 8.12261 Bohr) occupying 0.690560 of unit cell:	Completed after 23 iterations at t[s]:  14519.17
	FillingsUpdate:  mu: -0.127200000  nElectrons: 234.000000  magneticMoment: [ Abs: 1.27894  Tot: -1.07655 ]
ElecMinimize: Iter:   0  G: -376.115790878480425  |grad|_K:  2.961e-05  alpha:  1.000e+00
	Linear fluid (dielectric constant: 78.4, screening length: 8.12261 Bohr) occupying 0.700326 of unit cell:	Completed after 16 iterations at t[s]:  14652.44
	Linear fluid (dielectric constant: 78.4, screening length: 8.12261 Bohr) occupying 0.699913 of unit cell:	Completed after 10 iterations at t[s]:  14703.85
	FillingsUpdate:  mu: -0.127200000  nElectrons: 233.668350  magneticMoment: [ Abs: 0.99029  Tot: -0.78289 ]
	SubspaceRotationAdjust: set factor to 0.215
ElecMinimize: Iter:   1  G: -376.153585012569579  |grad|_K:  4.208e-06  alpha:  5.569e-01  linmin: -6.705e-03  t[s]:  14763.53
	Linear fluid (dielectric constant: 78.4, screening length: 8.12261 Bohr) occupying 0.700629 of unit cell:	Completed after 15 iterations at t[s]:  14826.22
	Linear fluid (dielectric constant: 78.4, screening length: 8.12261 Bohr) occupying 0.701110 of unit cell:	Completed after 14 iterations at t[s]:  14880.44
	FillingsUpdate:  mu: -0.127200000  nElectrons: 233.705244  magneticMoment: [ Abs: 0.97344  Tot: -0.74939 ]
	SubspaceRotationAdjust: set factor to 0.29
ElecMinimize: Iter:   2  G: -376.157632431488878  |grad|_K:  3.125e-06  alpha:  9.578e-01  linmin: -1.224e-03  t[s]:  14940.92
	Linear fluid (dielectric constant: 78.4, screening length: 8.12261 Bohr) occupying 0.701872 of unit cell:	Completed after 14 iterations at t[s]:  15002.66
	Linear fluid (dielectric constant: 78.4, screening length: 8.12261 Bohr) occupying 0.701778 of unit cell:	Completed after 7 iterations at t[s]:  15051.92
	FillingsUpdate:  mu: -0.127200000  nElectrons: 233.667587  magneticMoment: [ Abs: 0.97299  Tot: -0.78423 ]
	SubspaceRotationAdjust: set factor to 0.329
ElecMinimize: Iter:   3  G: -376.159662333696645  |grad|_K:  2.825e-06  alpha:  8.310e-01  linmin: -9.634e-05  t[s]:  15111.95
	Linear fluid (dielectric constant: 78.4, screening length: 8.12261 Bohr) occupying 0.702565 of unit cell:	Completed after 15 iterations at t[s]:  15174.30
	Linear fluid (dielectric constant: 78.4, screening length: 8.12261 Bohr) occupying 0.702320 of unit cell:	Completed after 11 iterations at t[s]:  15226.51
	FillingsUpdate:  mu: -0.127200000  nElectrons: 233.677938  magneticMoment: [ Abs: 0.96740  Tot: -0.77582 ]
	SubspaceRotationAdjust: set factor to 0.344
ElecMinimize: Iter:   4  G: -376.160661135842588  |grad|_K:  2.179e-06  alpha:  5.607e-01  linmin: -1.861e-05  t[s]:  15287.11
	Linear fluid (dielectric constant: 78.4, screening length: 8.12261 Bohr) occupying 0.702414 of unit cell:	Completed after 13 iterations at t[s]:  15347.99
	Linear fluid (dielectric constant: 78.4, screening length: 8.12261 Bohr) occupying 0.702418 of unit cell:	Completed after 3 iterations at t[s]:  15393.81
	FillingsUpdate:  mu: -0.127200000  nElectrons: 233.646061  magneticMoment: [ Abs: 0.97049  Tot: -0.80390 ]
	SubspaceRotationAdjust: set factor to 0.352
ElecMinimize: Iter:   5  G: -376.161280235500499  |grad|_K:  1.083e-06  alpha:  5.887e-01  linmin: -5.065e-05  t[s]:  15454.29
	Linear fluid (dielectric constant: 78.4, screening length: 8.12261 Bohr) occupying 0.702444 of unit cell:	Completed after 9 iterations at t[s]:  15512.29
	Linear fluid (dielectric constant: 78.4, screening length: 8.12261 Bohr) occupying 0.702451 of unit cell:	Completed after 7 iterations at t[s]:  15561.15
	FillingsUpdate:  mu: -0.127200000  nElectrons: 233.653998  magneticMoment: [ Abs: 0.96862  Tot: -0.79784 ]
	SubspaceRotationAdjust: set factor to 0.288
ElecMinimize: Iter:   6  G: -376.161485354523677  |grad|_K:  8.003e-07  alpha:  7.856e-01  linmin:  1.850e-05  t[s]:  15621.79
	Linear fluid (dielectric constant: 78.4, screening length: 8.12261 Bohr) occupying 0.702279 of unit cell:	Completed after 14 iterations at t[s]:  15683.64
	Linear fluid (dielectric constant: 78.4, screening length: 8.12261 Bohr) occupying 0.702368 of unit cell:	Completed after 11 iterations at t[s]:  15735.45
	FillingsUpdate:  mu: -0.127200000  nElectrons: 233.639976  magneticMoment: [ Abs: 0.97240  Tot: -0.81012 ]
	SubspaceRotationAdjust: set factor to 0.2
ElecMinimize: Iter:   7  G: -376.161537668116125  |grad|_K:  4.286e-07  alpha:  3.746e-01  linmin:  9.681e-06  t[s]:  15795.71
	Linear fluid (dielectric constant: 78.4, screening length: 8.12261 Bohr) occupying 0.702355 of unit cell:	Completed after 3 iterations at t[s]:  15849.97
	Linear fluid (dielectric constant: 78.4, screening length: 8.12261 Bohr) occupying 0.702347 of unit cell:	Completed after 2 iterations at t[s]:  15895.80
	FillingsUpdate:  mu: -0.127200000  nElectrons: 233.639278  magneticMoment: [ Abs: 0.97340  Tot: -0.81124 ]
	SubspaceRotationAdjust: set factor to 0.228
ElecMinimize: Iter:   8  G: -376.161561762544522  |grad|_K:  2.356e-07  alpha:  5.973e-01  linmin: -3.349e-05  t[s]:  15955.80
	Linear fluid (dielectric constant: 78.4, screening length: 8.12261 Bohr) occupying 0.702349 of unit cell:	Completed after 4 iterations at t[s]:  16009.95
	Linear fluid (dielectric constant: 78.4, screening length: 8.12261 Bohr) occupying 0.702349 of unit cell:	Completed after 0 iterations at t[s]:  16053.06
	FillingsUpdate:  mu: -0.127200000  nElectrons: 233.641464  magneticMoment: [ Abs: 0.97310  Tot: -0.80964 ]
	SubspaceRotationAdjust: set factor to 0.255
ElecMinimize: Iter:   9  G: -376.161569351444655  |grad|_K:  1.371e-07  alpha:  6.191e-01  linmin: -4.958e-05  t[s]:  16113.16
	Linear fluid (dielectric constant: 78.4, screening length: 8.12261 Bohr) occupying 0.702354 of unit cell:	Completed after 3 iterations at t[s]:  16166.64
	Linear fluid (dielectric constant: 78.4, screening length: 8.12261 Bohr) occupying 0.702354 of unit cell:	Completed after 0 iterations at t[s]:  16209.70
	FillingsUpdate:  mu: -0.127200000  nElectrons: 233.643445  magneticMoment: [ Abs: 0.97280  Tot: -0.80817 ]
	SubspaceRotationAdjust: set factor to 0.248
ElecMinimize: Iter:  10  G: -376.161571688460754  |grad|_K:  9.397e-08  alpha:  5.611e-01  linmin:  6.118e-05  t[s]:  16269.81
	Linear fluid (dielectric constant: 78.4, screening length: 8.12261 Bohr) occupying 0.702349 of unit cell:	Completed after 3 iterations at t[s]:  16323.25
	Linear fluid (dielectric constant: 78.4, screening length: 8.12261 Bohr) occupying 0.702349 of unit cell:	Completed after 0 iterations at t[s]:  16366.59
	FillingsUpdate:  mu: -0.127200000  nElectrons: 233.643086  magneticMoment: [ Abs: 0.97306  Tot: -0.80864 ]
	SubspaceRotationAdjust: set factor to 0.219
ElecMinimize: Iter:  11  G: -376.161572696210897  |grad|_K:  5.389e-08  alpha:  5.343e-01  linmin: -1.013e-04  t[s]:  16426.69
	Linear fluid (dielectric constant: 78.4, screening length: 8.12261 Bohr) occupying 0.702348 of unit cell:	Completed after 1 iterations at t[s]:  16478.78
	Linear fluid (dielectric constant: 78.4, screening length: 8.12261 Bohr) occupying 0.702348 of unit cell:	Completed after 0 iterations at t[s]:  16522.72
	FillingsUpdate:  mu: -0.127200000  nElectrons: 233.643515  magneticMoment: [ Abs: 0.97325  Tot: -0.80845 ]
	SubspaceRotationAdjust: set factor to 0.275
ElecMinimize: Iter:  12  G: -376.161573123722462  |grad|_K:  3.744e-08  alpha:  6.362e-01  linmin: -6.964e-05  t[s]:  16582.72
	Linear fluid (dielectric constant: 78.4, screening length: 8.12261 Bohr) occupying 0.702345 of unit cell:	Completed after 0 iterations at t[s]:  16633.22
	Linear fluid (dielectric constant: 78.4, screening length: 8.12261 Bohr) occupying 0.702344 of unit cell:	Completed after 1 iterations at t[s]:  16678.44
	FillingsUpdate:  mu: -0.127200000  nElectrons: 233.643456  magneticMoment: [ Abs: 0.97371  Tot: -0.80870 ]
	SubspaceRotationAdjust: set factor to 0.322
ElecMinimize: Iter:  13  G: -376.161573365606671  |grad|_K:  3.432e-08  alpha:  8.882e-01  linmin:  6.628e-05  t[s]:  16738.47
	Linear fluid (dielectric constant: 78.4, screening length: 8.12261 Bohr) occupying 0.702338 of unit cell:	Completed after 1 iterations at t[s]:  16790.35
	Linear fluid (dielectric constant: 78.4, screening length: 8.12261 Bohr) occupying 0.702340 of unit cell:	Completed after 0 iterations at t[s]:  16833.90
	FillingsUpdate:  mu: -0.127200000  nElectrons: 233.643145  magneticMoment: [ Abs: 0.97419  Tot: -0.80912 ]
	SubspaceRotationAdjust: set factor to 0.353
ElecMinimize: Iter:  14  G: -376.161573492991181  |grad|_K:  2.593e-08  alpha:  6.010e-01  linmin:  1.128e-05  t[s]:  16894.69
	Linear fluid (dielectric constant: 78.4, screening length: 8.12261 Bohr) occupying 0.702338 of unit cell:	Completed after 0 iterations at t[s]:  16946.19
	Linear fluid (dielectric constant: 78.4, screening length: 8.12261 Bohr) occupying 0.702338 of unit cell:	Completed after 0 iterations at t[s]:  16989.41
	FillingsUpdate:  mu: -0.127200000  nElectrons: 233.642886  magneticMoment: [ Abs: 0.97457  Tot: -0.80944 ]
	SubspaceRotationAdjust: set factor to 0.42
ElecMinimize: Iter:  15  G: -376.161573566614436  |grad|_K:  1.741e-08  alpha:  5.306e-01  linmin: -1.862e-05  t[s]:  17048.97
	Linear fluid (dielectric constant: 78.4, screening length: 8.12261 Bohr) occupying 0.702337 of unit cell:	Completed after 1 iterations at t[s]:  17101.32
	Linear fluid (dielectric constant: 78.4, screening length: 8.12261 Bohr) occupying 0.702338 of unit cell:	Completed after 0 iterations at t[s]:  17144.31
	FillingsUpdate:  mu: -0.127200000  nElectrons: 233.642805  magneticMoment: [ Abs: 0.97471  Tot: -0.80955 ]
	SubspaceRotationAdjust: set factor to 0.421
ElecMinimize: Iter:  16  G: -376.161573571995973  |grad|_K:  2.418e-08  alpha:  2.896e-01  linmin: -1.781e-05  t[s]:  17204.09
ElecMinimize: Converged (|Delta G|<1.000000e-07 for 2 iters).
Setting wave functions to eigenvectors of Hamiltonian
Converging empty states (this may take a while): |deigs|: 4.763e-03
Single-point solvation energy estimate, DeltaG = -0.056482358792607

Computing DFT-D3 correction:
# coordination-number C 3.301 3.324 3.337 3.332 3.313 3.291 3.321 3.534 3.329 3.313 3.303 3.338 3.300 3.301 3.322 3.746 3.270 3.303 3.321 3.334 3.327 3.306 3.303 3.332 3.337 3.321 3.301 3.271 3.532 3.322 3.303 3.306 3.315 3.301 3.313 3.327 3.745 3.334 3.292 3.315 3.333 3.334 3.322 3.304 2.991
# coordination-number N 3.171 3.186 3.176 3.186
# coordination-number Ti 6.857
# coordination-number O 2.143 1.165 2.931
# coordination-number H 0.989 0.989 1.078 1.002
# diagonal-C6 C 24.27 24.04 23.89 23.95 24.15 24.36 24.07 21.14 23.98 24.15 24.25 23.88 24.28 24.27 24.06 19.01 24.55 24.25 24.07 23.93 24.01 24.22 24.26 23.96 23.90 24.07 24.27 24.54 21.17 24.06 24.26 24.22 24.13 24.28 24.15 24.00 19.02 23.93 24.36 24.14 23.94 23.93 24.06 24.24 25.69
# diagonal-C6 N 15.60 15.60 15.60 15.60
# diagonal-C6 Ti 321.59
# diagonal-C6 O 10.38 12.65 10.37
# diagonal-C6 H 3.10 3.10 3.06 3.09
EvdW_6 =   -0.042963
EvdW_8 =   -0.033274

# Ionic positions in cartesian coordinates:
ion C  -0.000339000000000   0.090158000000000   0.027035000000000 1
ion C  21.034514999999999   4.041874000000000   0.042824000000000 1
ion C  18.687942000000003   8.042873000000000  43.224390000000007 1
ion C  -7.050694000000002  12.044127000000001  43.225860000000004 1
ion C  -9.377141000000002  16.052762000000005   0.011895000000000 1
ion C   4.679036000000001   0.174611000000000   0.054373000000000 1
ion C   2.281641000000000   4.206315000000001   0.205208000000000 1
ion C  -0.139316999999999   8.022831000000000   0.198590000000000 1
ion C  -2.432395999999999  12.023731000000000   0.056882000000000 1
ion C  -4.721792000000001  16.050491000000005   0.020677000000000 1
ion C   9.373443000000002   0.062680000000000   0.000908000000000 1
ion C   7.079137000000001   4.150505000000001   0.042694000000000 1
ion C  -0.020795000000000  15.948081000000002   0.094256000000000 1
ion C   2.337023000000000  19.929569000000004   0.020417000000000 1
ion C  11.749412000000000   4.029298000000001  43.230186000000010 1
ion C   9.456182999999999   8.026787000000002   0.040704000000000 1
ion C   4.666916999999998  15.841312000000004   0.149407000000000 1
ion C   6.990393000000001  19.940703000000003   0.015443000000000 1
ion C  16.391186000000005   4.017700000000000  43.230402000000005 1
ion C  14.081757000000000   8.038538000000003  43.230359000000007 1
ion C  11.769306000000000  12.041837000000003   0.038412000000000 1
ion C   9.373035000000002  15.998747000000002   0.015529000000000 1
ion C  -0.016988000000000   2.771959000000000   0.078813000000000 1
ion C  -2.435450000000000   6.694336000000001   0.039147000000000 1
ion C  -4.746924000000000  10.692708000000001  43.232306000000008 1
ion C  -7.049676000000002  14.715228000000003  43.255967000000005 1
ion C  -9.378234000000003  18.742197000000001   0.034302000000000 1
ion C   4.675447000000000   2.892753000000000   0.121810000000000 1
ion C  -0.134713000000000  10.694334000000000   0.209836000000000 1
ion C  -2.404919000000000  14.695412000000001   0.062938000000000 1
ion C  -4.724372000000000  18.736912000000000   0.022277000000000 1
ion C   9.382341000000000   2.741429000000001  43.235247000000008 1
ion C   2.282624999999999  14.517917000000004   0.227918000000000 1
ion C  -0.013143000000001  18.632694000000004   0.027727000000000 1
ion C  14.066799000000001   2.676853000000000  43.235593000000009 1
ion C  11.773301000000000   6.703330000000001  43.255145000000006 1
ion C   9.456214000000003  10.716143000000002   0.089714000000000 1
ion C   7.073657000000001  14.592599999999999   0.113461000000000 1
ion C   4.663644999999999  18.559794000000004   0.053984000000000 1
ion C  18.720417000000001   2.684935000000001   0.001384000000000 1
ion C  16.387083000000004   6.689136000000002  43.210721000000007 1
ion C  14.080981999999999  10.710017000000002  43.240395000000007 1
ion C  11.744928000000000  14.716171000000001   0.023142000000000 1
ion C   9.358264000000004  18.676200000000005   0.006056000000000 1
ion C   4.510778999999999   9.183292000000002   5.521798000000001 1
ion N   2.166088000000000  11.909770999999999   0.451423000000000 1
ion N   7.177215999999998  12.007767000000003   0.262393000000000 1
ion N   2.150769999999999   6.802979000000001   0.423739000000000 1
ion N   7.181220000000001   6.735477000000001   0.093044000000000 1
ion Ti   4.872806999999999   9.341601000000002   1.562980000000000 1
ion O   3.955672000000000  10.962183000000001   7.524349000000001 1
ion O   5.001872000000001   7.036637000000001   6.272987000000001 1
ion O   8.006914999999999  11.921039000000002   9.784708000000002 1
ion H   8.011922000000000  13.640727000000004  10.555838000000001 1
ion H   8.452159000000000  10.668946000000002  11.119035000000002 1
ion H   6.204614999999999  11.514274000000000   8.958426000000001 1
ion H   3.321934000000001  12.560857000000002   6.789554000000002 1

# Forces in Cartesian coordinates:
force C  -0.000047402010524  -0.000025731501657  -0.000000039316923 1
force C  -0.000039395241539  -0.000011938354809  -0.000020131858381 1
force C  -0.000035196886823  -0.000026812465041  -0.000016801329195 1
force C  -0.000030646575541  -0.000022666558252   0.000019914105795 1
force C  -0.000022065088584  -0.000013025052486   0.000023326654133 1
force C  -0.000027144871926  -0.000028971468701  -0.000005201298850 1
force C  -0.000051951959420  -0.000031431952914  -0.000025067016310 1
force C  -0.000027036097197  -0.000043349497996  -0.000026014307039 1
force C  -0.000038547711670  -0.000025563516352  -0.000019713562943 1
force C  -0.000039916695854  -0.000012300826616   0.000005894217827 1
force C  -0.000029855315422  -0.000021697386098  -0.000011830997058 1
force C  -0.000046778620669   0.000006114266908  -0.000049221668672 1
force C  -0.000039274959458  -0.000013247508083  -0.000015230924395 1
force C  -0.000027386234546  -0.000026650508273  -0.000013321903859 1
force C  -0.000033703968614  -0.000005404961854  -0.000029914590714 1
force C  -0.000050758751097  -0.000043630637070  -0.000059717377187 1
force C  -0.000018365981345  -0.000033820345310  -0.000013076441824 1
force C  -0.000039431322958  -0.000019574616791  -0.000011470258941 1
force C  -0.000020792895375  -0.000025897820979  -0.000011662327803 1
force C  -0.000041684268007  -0.000033931641638   0.000008429777913 1
force C  -0.000042281601969  -0.000030906309742   0.000018649215128 1
force C  -0.000047566819967  -0.000031165796676   0.000010547667480 1
force C  -0.000035417634575  -0.000044598750562  -0.000021043083573 1
force C  -0.000045672386285  -0.000015862626182  -0.000039713435002 1
force C  -0.000025882586804  -0.000008589172366  -0.000001266129979 1
force C  -0.000031489875712  -0.000015361260534   0.000019679852580 1
force C  -0.000036217967703  -0.000014379341449   0.000006952218711 1
force C  -0.000026973185772  -0.000015606325682  -0.000024760209681 1
force C  -0.000017107831318  -0.000015669799808  -0.000055207805668 1
force C  -0.000010503335323  -0.000029982854364  -0.000017538726870 1
force C  -0.000036517326792  -0.000027416011932  -0.000005910878975 1
force C  -0.000031690404001  -0.000021828575834  -0.000022748576174 1
force C  -0.000046006281061  -0.000024559991876  -0.000035637308883 1
force C  -0.000027647468359  -0.000039469257753  -0.000009940705311 1
force C  -0.000023635359312  -0.000031089046670  -0.000021879422573 1
force C  -0.000045530842228  -0.000014164681804  -0.000029490928719 1
force C  -0.000057883292016  -0.000019356430846  -0.000028504524114 1
force C  -0.000052767265602  -0.000053422546933  -0.000001320603756 1
force C  -0.000042345075913  -0.000023509907714  -0.000016094788796 1
force C  -0.000045957992096  -0.000021218257370  -0.000023872981116 1
force C  -0.000036657633486  -0.000010169059265  -0.000006944079568 1
force C  -0.000056080730530  -0.000006513376862   0.000018341567252 1
force C  -0.000050032092155  -0.000041807137963   0.000027065676273 1
force C  -0.000036152898788  -0.000030338255029  -0.000005773615380 1
force C   0.000080116872134   0.000962458323144   0.000338989136913 1
force N  -0.000175812905532   0.000060198795030  -0.000120210626167 1
force N   0.000110491603098   0.000054235653891  -0.000056984654663 1
force N  -0.000194918385219  -0.000105760876089  -0.000063379959757 1
force N   0.000094162416213  -0.000080147135291  -0.000178198902961 1
force Ti   0.000020428867443   0.000113718563200  -0.000146847886078 1
force O   0.000304925805640  -0.000111620642312  -0.000219635102920 1
force O   0.000993746863174   0.000695237437841  -0.000563233877941 1
force O  -0.000075618191644  -0.000144885752632   0.000376002120900 1
force H   0.000086973661503  -0.000010051543920  -0.000064019489305 1
force H  -0.000351648955146   0.000030373535684   0.000535949164836 1
force H   0.000579319101036  -0.000080826666755   0.000442947215496 1
force H   0.000077671171915  -0.000190726515403  -0.000002906175533 1

# Energy components:
   A_diel =       -0.0542484175008300
   Eewald =     1663.1629589835572460
       EH =     1994.8037934847181987
     Eloc =    -4214.6812765400063654
      Enl =       54.7978302430794741
     EvdW =       -0.0762372758862141
      Exc =     -113.8435565797194045
 Exc_core =        3.3745965372615361
       KE =      206.6315580559804914
  MuShift =        0.0041003567499951
-------------------------------------
     Etot =     -405.8804811517658209
       TS =        0.0004571916211328
-------------------------------------
        F =     -405.8809383433869584
      muN =      -29.7193647713909748
-------------------------------------
        G =     -376.1615735719959730


Dumping 'jdft.fillings' ... done
Dumping 'jdft.wfns' ... done
Dumping 'jdft.fluidState' ... done
Dumping 'jdft.ionpos' ... done
Dumping 'jdft.lattice' ... done
Dumping 'jdft.eigenvals' ... done
Dumping 'jdft.eigStats' ... 
	eMin: -2.259771 at state 9 ( [ +0.000000 +0.000000 +0.000000 ] spin -1 )
	HOMO: -0.131579 at state 17 ( [ -0.333333 -0.333333 +0.000000 ] spin -1 )
	mu  : -0.127200
	LUMO: -0.126920 at state 0 ( [ +0.000000 +0.000000 +0.000000 ] spin 1 )
	eMax: +0.023081 at state 0 ( [ +0.000000 +0.000000 +0.000000 ] spin 1 )
	HOMO-LUMO gap: +0.004659
	Optical gap  : +0.012542 at state 10 ( [ +0.000000 +0.333333 +0.000000 ] spin -1 )
Dumping 'jdft.Ecomponents' ... done
IonicMinimize: Iter:   0  G: -376.161573571995973  |grad|_K:  1.619e-04  t[s]:  18398.72
IonicMinimize: None of the convergence criteria satisfied after 0 iterations.

#--- Lowdin population analysis ---
# oxidation-state C +0.035 +0.038 +0.035 +0.042 +0.033 +0.038 +0.157 +0.130 +0.026 +0.033 +0.036 +0.165 +0.019 +0.035 +0.041 +0.106 -0.008 +0.034 +0.029 +0.036 +0.029 +0.017 +0.020 +0.026 +0.034 +0.028 +0.034 -0.009 +0.128 +0.038 +0.033 +0.016 +0.151 +0.035 +0.032 +0.028 +0.103 +0.161 +0.037 +0.033 +0.041 +0.036 +0.036 +0.034 +0.127
# magnetic-moments C -0.001 -0.007 -0.001 +0.000 +0.001 +0.002 -0.020 -0.007 -0.000 +0.002 -0.001 -0.012 +0.005 -0.002 -0.004 -0.001 +0.006 -0.003 -0.001 +0.002 +0.001 +0.001 +0.004 +0.000 +0.000 -0.003 -0.005 +0.003 -0.004 -0.008 -0.006 -0.001 -0.023 -0.002 -0.001 -0.001 -0.010 -0.019 +0.000 +0.001 -0.001 +0.000 -0.008 -0.003 -0.073
# oxidation-state N -0.329 -0.337 -0.327 -0.337
# magnetic-moments N +0.013 +0.003 +0.013 -0.004
# oxidation-state Ti +1.373
# magnetic-moments Ti -0.536
# oxidation-state O -0.461 -0.424 -0.551
# magnetic-moments O -0.005 -0.062 -0.000
# oxidation-state H +0.540 +0.538 +0.399 +0.465
# magnetic-moments H +0.000 +0.000 -0.000 +0.000


Dumping 'jdft.n_up' ... done
Dumping 'jdft.n_dn' ... done
Dumping 'jdft.tau_up' ... done
Dumping 'jdft.tau_dn' ... done
Dumping 'jdft.eigenvals' ... done
Dumping 'jdft.eigStats' ... 
	eMin: -2.259771 at state 9 ( [ +0.000000 +0.000000 +0.000000 ] spin -1 )
	HOMO: -0.131579 at state 17 ( [ -0.333333 -0.333333 +0.000000 ] spin -1 )
	mu  : -0.127200
	LUMO: -0.126920 at state 0 ( [ +0.000000 +0.000000 +0.000000 ] spin 1 )
	eMax: +0.023081 at state 0 ( [ +0.000000 +0.000000 +0.000000 ] spin 1 )
	HOMO-LUMO gap: +0.004659
	Optical gap  : +0.012542 at state 10 ( [ +0.000000 +0.333333 +0.000000 ] spin -1 )
Dumping 'jdft.kPts' ... done
Dumping 'jdft.dosUp' ... done.
Dumping 'jdft.dosDn' ... done.
End date and time: Tue Mar 14 18:44:17 2023  (Duration: 0-5:08:10.03)
Done!

PROFILER:             augmentDensityGrid     0.804433 +/-     0.910145 s, 1025 calls,    824.543788 s total
PROFILER:         augmentDensityGridGrad     0.571787 +/-     0.609719 s,  535 calls,    305.906033 s total
PROFILER:        augmentDensitySpherical     0.000587 +/-     0.000827 s, 1025 calls,      0.601854 s total
PROFILER:    augmentDensitySphericalGrad     0.000615 +/-     0.001046 s,  815 calls,      0.501126 s total
PROFILER:                 augmentOverlap     1.713173 +/-     2.544245 s, 2110 calls,   3614.794684 s total
PROFILER:        ColumnBundle::randomize     0.007339 +/-     0.000000 s,    1 calls,      0.007339 s total
PROFILER:                     diagouterI    22.262832 +/-     5.438843 s,  208 calls,   4630.668971 s total
PROFILER:              EdensityAndVscloc     3.244316 +/-     5.057398 s,  206 calls,    668.329198 s total
PROFILER:                     EnlAndGrad     0.001700 +/-     0.002750 s, 1070 calls,      1.819111 s total
PROFILER:            ExCorrCommunication     0.097919 +/-     0.111123 s, 1249 calls,    122.301439 s total
PROFILER:               ExCorrFunctional     0.030808 +/-     0.004104 s,  210 calls,      6.469656 s total
PROFILER:                    ExCorrTotal     0.941539 +/-     0.204890 s,  210 calls,    197.723235 s total
PROFILER:                   Idag_DiagV_I    31.484237 +/-    19.808562 s,  162 calls,   5100.446415 s total
PROFILER:                    initWeights     2.531020 +/-     0.000000 s,    1 calls,      2.531020 s total
PROFILER:                    inv(matrix)     0.002738 +/-     0.000240 s,  153 calls,      0.418956 s total
PROFILER:            matrix::diagonalize     0.014041 +/-     0.007903 s,  364 calls,      5.111092 s total
PROFILER:                    matrix::set     0.000003 +/-     0.000003 s, 22003 calls,      0.055665 s total
PROFILER:            orthoMatrix(matrix)     0.002309 +/-     0.000807 s,  209 calls,      0.482534 s total
PROFILER:     RadialFunctionR::transform     0.026312 +/-     0.181424 s,  151 calls,      3.973112 s total
PROFILER:                    reduceKmesh     0.000000 +/-     0.000000 s,    1 calls,      0.000000 s total
PROFILER:   VanDerWaalsD3::energyAndGrad     0.047755 +/-     0.001806 s,    3 calls,      0.143264 s total
PROFILER:               WavefunctionDrag    18.264892 +/-     0.000000 s,    1 calls,     18.264892 s total
PROFILER:                            Y*M     0.789103 +/-     1.062714 s, 3815 calls,   3010.429051 s total
PROFILER:                          Y1^Y2     0.792780 +/-     1.056698 s, 2690 calls,   2132.577764 s total

MEMUSAGE:                   ColumnBundle     1.372431 GB
MEMUSAGE:        complexScalarFieldTilde     0.074158 GB
MEMUSAGE:                    IndexArrays     0.023178 GB
MEMUSAGE:                         matrix     0.020874 GB
MEMUSAGE:                           misc     0.051230 GB
MEMUSAGE:                    ScalarField     0.358429 GB
MEMUSAGE:               ScalarFieldTilde     0.262436 GB
MEMUSAGE:                          Total     1.652823 GB
