
*************** JDFTx 1.7.0 (git hash 5f12716a) ***************

Start date and time: Tue Mar 14 13:34:35 2023
Executable /home/nisi6161/jdftx_alpine/build/jdftx with command-line: -i in
Running on hosts (process indices):  c3cpu-a9-u5-3.rc.int.colorado.edu (0-17)
Divided in process groups (process indices):  0 (0)  1 (1)  2 (2)  3 (3)  4 (4)  5 (5)  6 (6)  7 (7)  8 (8)  9 (9)  10 (10)  11 (11)  12 (12)  13 (13)  14 (14)  15 (15)  16 (16)  17 (17)
Resource initialization completed at t[s]:      0.09
Run totals: 18 processes, 64 threads, 0 GPUs


Input parsed successfully to the following command list (including defaults):

basis kpoint-dependent
converge-empty-states yes
coords-type Cartesian
core-overlap-check none
coulomb-interaction Periodic
davidson-band-ratio 1.1
density-of-states Etol 1.000000e-06 Esigma 1.000000e-03 \
		Complete \
	Total \
	OrthoOrbital C 1   s \
	OrthoOrbital C 1   p \
	OrthoOrbital C 1   px \
	OrthoOrbital C 1   py \
	OrthoOrbital C 1   pz \
	OrthoOrbital C 2   s \
	OrthoOrbital C 2   p \
	OrthoOrbital C 2   px \
	OrthoOrbital C 2   py \
	OrthoOrbital C 2   pz \
	OrthoOrbital C 3   s \
	OrthoOrbital C 3   p \
	OrthoOrbital C 3   px \
	OrthoOrbital C 3   py \
	OrthoOrbital C 3   pz \
	OrthoOrbital C 4   s \
	OrthoOrbital C 4   p \
	OrthoOrbital C 4   px \
	OrthoOrbital C 4   py \
	OrthoOrbital C 4   pz \
	OrthoOrbital C 5   s \
	OrthoOrbital C 5   p \
	OrthoOrbital C 5   px \
	OrthoOrbital C 5   py \
	OrthoOrbital C 5   pz \
	OrthoOrbital C 6   s \
	OrthoOrbital C 6   p \
	OrthoOrbital C 6   px \
	OrthoOrbital C 6   py \
	OrthoOrbital C 6   pz \
	OrthoOrbital C 7   s \
	OrthoOrbital C 7   p \
	OrthoOrbital C 7   px \
	OrthoOrbital C 7   py \
	OrthoOrbital C 7   pz \
	OrthoOrbital C 8   s \
	OrthoOrbital C 8   p \
	OrthoOrbital C 8   px \
	OrthoOrbital C 8   py \
	OrthoOrbital C 8   pz \
	OrthoOrbital C 9   s \
	OrthoOrbital C 9   p \
	OrthoOrbital C 9   px \
	OrthoOrbital C 9   py \
	OrthoOrbital C 9   pz \
	OrthoOrbital C 10   s \
	OrthoOrbital C 10   p \
	OrthoOrbital C 10   px \
	OrthoOrbital C 10   py \
	OrthoOrbital C 10   pz \
	OrthoOrbital C 11   s \
	OrthoOrbital C 11   p \
	OrthoOrbital C 11   px \
	OrthoOrbital C 11   py \
	OrthoOrbital C 11   pz \
	OrthoOrbital C 12   s \
	OrthoOrbital C 12   p \
	OrthoOrbital C 12   px \
	OrthoOrbital C 12   py \
	OrthoOrbital C 12   pz \
	OrthoOrbital C 13   s \
	OrthoOrbital C 13   p \
	OrthoOrbital C 13   px \
	OrthoOrbital C 13   py \
	OrthoOrbital C 13   pz \
	OrthoOrbital C 14   s \
	OrthoOrbital C 14   p \
	OrthoOrbital C 14   px \
	OrthoOrbital C 14   py \
	OrthoOrbital C 14   pz \
	OrthoOrbital C 15   s \
	OrthoOrbital C 15   p \
	OrthoOrbital C 15   px \
	OrthoOrbital C 15   py \
	OrthoOrbital C 15   pz \
	OrthoOrbital C 16   s \
	OrthoOrbital C 16   p \
	OrthoOrbital C 16   px \
	OrthoOrbital C 16   py \
	OrthoOrbital C 16   pz \
	OrthoOrbital C 17   s \
	OrthoOrbital C 17   p \
	OrthoOrbital C 17   px \
	OrthoOrbital C 17   py \
	OrthoOrbital C 17   pz \
	OrthoOrbital C 18   s \
	OrthoOrbital C 18   p \
	OrthoOrbital C 18   px \
	OrthoOrbital C 18   py \
	OrthoOrbital C 18   pz \
	OrthoOrbital C 19   s \
	OrthoOrbital C 19   p \
	OrthoOrbital C 19   px \
	OrthoOrbital C 19   py \
	OrthoOrbital C 19   pz \
	OrthoOrbital C 20   s \
	OrthoOrbital C 20   p \
	OrthoOrbital C 20   px \
	OrthoOrbital C 20   py \
	OrthoOrbital C 20   pz \
	OrthoOrbital C 21   s \
	OrthoOrbital C 21   p \
	OrthoOrbital C 21   px \
	OrthoOrbital C 21   py \
	OrthoOrbital C 21   pz \
	OrthoOrbital C 22   s \
	OrthoOrbital C 22   p \
	OrthoOrbital C 22   px \
	OrthoOrbital C 22   py \
	OrthoOrbital C 22   pz \
	OrthoOrbital C 23   s \
	OrthoOrbital C 23   p \
	OrthoOrbital C 23   px \
	OrthoOrbital C 23   py \
	OrthoOrbital C 23   pz \
	OrthoOrbital C 24   s \
	OrthoOrbital C 24   p \
	OrthoOrbital C 24   px \
	OrthoOrbital C 24   py \
	OrthoOrbital C 24   pz \
	OrthoOrbital C 25   s \
	OrthoOrbital C 25   p \
	OrthoOrbital C 25   px \
	OrthoOrbital C 25   py \
	OrthoOrbital C 25   pz \
	OrthoOrbital C 26   s \
	OrthoOrbital C 26   p \
	OrthoOrbital C 26   px \
	OrthoOrbital C 26   py \
	OrthoOrbital C 26   pz \
	OrthoOrbital C 27   s \
	OrthoOrbital C 27   p \
	OrthoOrbital C 27   px \
	OrthoOrbital C 27   py \
	OrthoOrbital C 27   pz \
	OrthoOrbital C 28   s \
	OrthoOrbital C 28   p \
	OrthoOrbital C 28   px \
	OrthoOrbital C 28   py \
	OrthoOrbital C 28   pz \
	OrthoOrbital C 29   s \
	OrthoOrbital C 29   p \
	OrthoOrbital C 29   px \
	OrthoOrbital C 29   py \
	OrthoOrbital C 29   pz \
	OrthoOrbital C 30   s \
	OrthoOrbital C 30   p \
	OrthoOrbital C 30   px \
	OrthoOrbital C 30   py \
	OrthoOrbital C 30   pz \
	OrthoOrbital C 31   s \
	OrthoOrbital C 31   p \
	OrthoOrbital C 31   px \
	OrthoOrbital C 31   py \
	OrthoOrbital C 31   pz \
	OrthoOrbital C 32   s \
	OrthoOrbital C 32   p \
	OrthoOrbital C 32   px \
	OrthoOrbital C 32   py \
	OrthoOrbital C 32   pz \
	OrthoOrbital C 33   s \
	OrthoOrbital C 33   p \
	OrthoOrbital C 33   px \
	OrthoOrbital C 33   py \
	OrthoOrbital C 33   pz \
	OrthoOrbital C 34   s \
	OrthoOrbital C 34   p \
	OrthoOrbital C 34   px \
	OrthoOrbital C 34   py \
	OrthoOrbital C 34   pz \
	OrthoOrbital C 35   s \
	OrthoOrbital C 35   p \
	OrthoOrbital C 35   px \
	OrthoOrbital C 35   py \
	OrthoOrbital C 35   pz \
	OrthoOrbital C 36   s \
	OrthoOrbital C 36   p \
	OrthoOrbital C 36   px \
	OrthoOrbital C 36   py \
	OrthoOrbital C 36   pz \
	OrthoOrbital C 37   s \
	OrthoOrbital C 37   p \
	OrthoOrbital C 37   px \
	OrthoOrbital C 37   py \
	OrthoOrbital C 37   pz \
	OrthoOrbital C 38   s \
	OrthoOrbital C 38   p \
	OrthoOrbital C 38   px \
	OrthoOrbital C 38   py \
	OrthoOrbital C 38   pz \
	OrthoOrbital C 39   s \
	OrthoOrbital C 39   p \
	OrthoOrbital C 39   px \
	OrthoOrbital C 39   py \
	OrthoOrbital C 39   pz \
	OrthoOrbital C 40   s \
	OrthoOrbital C 40   p \
	OrthoOrbital C 40   px \
	OrthoOrbital C 40   py \
	OrthoOrbital C 40   pz \
	OrthoOrbital C 41   s \
	OrthoOrbital C 41   p \
	OrthoOrbital C 41   px \
	OrthoOrbital C 41   py \
	OrthoOrbital C 41   pz \
	OrthoOrbital C 42   s \
	OrthoOrbital C 42   p \
	OrthoOrbital C 42   px \
	OrthoOrbital C 42   py \
	OrthoOrbital C 42   pz \
	OrthoOrbital C 43   s \
	OrthoOrbital C 43   p \
	OrthoOrbital C 43   px \
	OrthoOrbital C 43   py \
	OrthoOrbital C 43   pz \
	OrthoOrbital C 44   s \
	OrthoOrbital C 44   p \
	OrthoOrbital C 44   px \
	OrthoOrbital C 44   py \
	OrthoOrbital C 44   pz \
	OrthoOrbital C 45   s \
	OrthoOrbital C 45   p \
	OrthoOrbital C 45   px \
	OrthoOrbital C 45   py \
	OrthoOrbital C 45   pz \
	OrthoOrbital N 1   s \
	OrthoOrbital N 1   p \
	OrthoOrbital N 1   px \
	OrthoOrbital N 1   py \
	OrthoOrbital N 1   pz \
	OrthoOrbital N 2   s \
	OrthoOrbital N 2   p \
	OrthoOrbital N 2   px \
	OrthoOrbital N 2   py \
	OrthoOrbital N 2   pz \
	OrthoOrbital N 3   s \
	OrthoOrbital N 3   p \
	OrthoOrbital N 3   px \
	OrthoOrbital N 3   py \
	OrthoOrbital N 3   pz \
	OrthoOrbital N 4   s \
	OrthoOrbital N 4   p \
	OrthoOrbital N 4   px \
	OrthoOrbital N 4   py \
	OrthoOrbital N 4   pz \
	OrthoOrbital Ti 1   s \
	OrthoOrbital Ti 1   p \
	OrthoOrbital Ti 1   px \
	OrthoOrbital Ti 1   py \
	OrthoOrbital Ti 1   pz \
	OrthoOrbital Ti 1   d \
	OrthoOrbital Ti 1   dxy \
	OrthoOrbital Ti 1   dyz \
	OrthoOrbital Ti 1   dz2 \
	OrthoOrbital Ti 1   dxz \
	OrthoOrbital Ti 1   dx2-y2 \
	OrthoOrbital O 1   s \
	OrthoOrbital O 1   p \
	OrthoOrbital O 1   px \
	OrthoOrbital O 1   py \
	OrthoOrbital O 1   pz \
	OrthoOrbital O 2   s \
	OrthoOrbital O 2   p \
	OrthoOrbital O 2   px \
	OrthoOrbital O 2   py \
	OrthoOrbital O 2   pz
dump End ElecDensity KEdensity BandEigs EigStats RhoAtom DOS Kpoints
dump Ionic State IonicPositions Lattice EigStats Ecomponents
dump 
dump 
dump 
dump 
dump 
dump 
dump 
dump 
dump-name jdft.$VAR
elec-cutoff 20
elec-eigen-algo Davidson
elec-ex-corr gga-PBE
elec-initial-magnetization 0.000000 no
elec-n-bands 135
elec-smearing Fermi 0.001
electronic-minimize  \
	dirUpdateScheme      FletcherReeves \
	linminMethod         DirUpdateRecommended \
	nIterations          100 \
	history              15 \
	knormThreshold       0 \
	energyDiffThreshold  1e-07 \
	nEnergyDiff          2 \
	alphaTstart          1 \
	alphaTmin            1e-10 \
	updateTestStepSize   yes \
	alphaTreduceFactor   0.1 \
	alphaTincreaseFactor 3 \
	nAlphaAdjustMax      3 \
	wolfeEnergy          0.0001 \
	wolfeGradient        0.9 \
	fdTest               no
exchange-regularization WignerSeitzTruncated
fluid LinearPCM 298.000000 1.013250
fluid-anion F- 0.5 MeanFieldLJ \
	epsBulk 1 \
	pMol 0 \
	epsInf 1 \
	Pvap 0 \
	sigmaBulk 0 \
	Rvdw 2.24877 \
	Res 0 \
	tauNuc 343133
fluid-cation Na+ 0.5 MeanFieldLJ \
	epsBulk 1 \
	pMol 0 \
	epsInf 1 \
	Pvap 0 \
	sigmaBulk 0 \
	Rvdw 2.19208 \
	Res 0 \
	tauNuc 343133
fluid-ex-corr lda-TF lda-PZ
fluid-gummel-loop 10 1.000000e-05
fluid-minimize  \
	dirUpdateScheme      PolakRibiere \
	linminMethod         DirUpdateRecommended \
	nIterations          400 \
	history              15 \
	knormThreshold       1e-11 \
	energyDiffThreshold  0 \
	nEnergyDiff          2 \
	alphaTstart          1 \
	alphaTmin            1e-10 \
	updateTestStepSize   yes \
	alphaTreduceFactor   0.1 \
	alphaTincreaseFactor 3 \
	nAlphaAdjustMax      6 \
	wolfeEnergy          0.0001 \
	wolfeGradient        0.9 \
	fdTest               no
fluid-solvent H2O 55.338 ScalarEOS \
	epsBulk 78.4 \
	pMol 0.92466 \
	epsInf 1.77 \
	Pvap 1.06736e-10 \
	sigmaBulk 4.62e-05 \
	Rvdw 2.61727 \
	Res 1.42 \
	tauNuc 343133 \
	poleEl 15 7 1
forces-output-coords Positions
ion C   0.105113000000000   0.057993000000000   0.012196000000000 1
ion C  -2.294063000000001   3.989850000000001   0.036830000000000 1
ion C  -4.636188000000000   7.989755000000001  43.186352000000007 1
ion C  -6.944679000000000  12.009537000000002  43.167876000000007 1
ion C  -9.274525000000002  16.018981000000004  43.216025000000009 1
ion C   4.781572000000000   0.144015000000000   0.038578000000000 1
ion C   2.393441999999999   4.183655000000001   0.236791000000000 1
ion C  -0.024840000000000   7.992407000000001   0.234792000000000 1
ion C  -2.326015000000000  11.989917000000002   0.037505000000000 1
ion C  -4.617597000000001  16.017151000000002  43.246116000000008 1
ion C   9.475648000000001   0.030732000000000  43.249838000000004 1
ion C   7.180874000000001   4.120810000000001   0.063802000000000 1
ion C   0.083701000000000  15.909778000000001   0.097197000000000 1
ion C   2.441086000000000  19.890821000000003   0.015479000000000 1
ion C  11.856209000000000   3.993558000000001  43.218748000000005 1
ion C   9.563008999999999   7.991099000000001   0.041229000000000 1
ion C   4.769634000000000  15.799205000000002   0.142738000000000 1
ion C   7.096677999999997  19.901965000000001   0.004459000000000 1
ion C  16.497684000000000   3.981607000000001  43.204318000000008 1
ion C  14.187965000000002   8.001747000000000  43.175779000000006 1
ion C  11.876976000000003  12.008080000000003  43.228523000000010 1
ion C   9.472270999999999  15.955571000000004  43.234984000000004 1
ion C   0.094036000000000   2.746030000000000   0.084197000000000 1
ion C  -2.321693000000000   6.661924000000000   0.030816000000000 1
ion C  -4.638280000000000  10.658497000000002  43.188795000000006 1
ion C  -6.946729999999999  14.681130000000001  43.205009000000004 1
ion C  -9.276069000000001  18.710373000000004   0.005708000000000 1
ion C   4.779582000000000   2.863809000000000   0.132413000000000 1
ion C  -0.027267000000001  10.662764000000001   0.238935000000000 1
ion C  -2.302404000000002  14.662066000000001   0.046594000000000 1
ion C  -4.620522000000000  18.706286000000002   0.003996000000000 1
ion C   9.482347000000003   2.714718000000000  43.235236000000008 1
ion C   2.385288000000001  14.475836000000001   0.248770000000000 1
ion C   0.090738999999999  18.597775000000002   0.023208000000000 1
ion C  14.171937000000002   2.640241000000001  43.220245000000006 1
ion C  11.880902000000003   6.665686000000001  43.227937000000004 1
ion C   9.561213000000000  10.679273000000002   0.042182000000000 1
ion C   7.173064000000002  14.546341000000002   0.068630000000000 1
ion C   4.767401000000001  18.518912000000004   0.047375000000000 1
ion C  18.828890000000001   2.649165000000000  43.242179000000007 1
ion C  16.495671000000002   6.653171000000002  43.165867000000006 1
ion C  14.185988000000000  10.675409000000004  43.176252000000005 1
ion C  11.848077999999999  14.680171000000005  43.217095000000008 1
ion C   9.461399999999999  18.639464000000004  43.245744000000009 1
ion C   3.373461000000000   9.313198000000002   8.093780000000002 1
ion N   2.273497000000002  11.863315000000000   0.514381000000000 1
ion N   7.271606000000000  11.945106000000001   0.167921000000000 1
ion N   2.278078000000000   6.795471000000001   0.506843000000000 1
ion N   7.274915000000000   6.722376000000001   0.165035000000000 1
ion Ti   5.049669000000002   9.332603000000002   1.671893000000000 1
ion O   5.515347000000001   9.308922000000003   7.484367000000001 1
ion O   1.230949000000000   9.317025000000001   8.609791000000001 1
ion-species /projects/musgravc/apps/jdftx-1.6.0/build/pseudopotentials/GBRV_v1.5/$ID_pbe_v1.uspp
ion-species /projects/musgravc/apps/jdftx-1.6.0/build/pseudopotentials/GBRV_v1.5/$ID_pbe_v1.2.uspp
ion-species /projects/musgravc/apps/jdftx-1.6.0/build/pseudopotentials/GBRV_v1.5/$ID_pbe_v1.4.uspp
ion-species /projects/musgravc/apps/jdftx-1.6.0/build/pseudopotentials/GBRV_v1.5/$ID_pbe_v1.5.uspp
ion-width Ecut
ionic-minimize  \
	dirUpdateScheme      L-BFGS \
	linminMethod         DirUpdateRecommended \
	nIterations          0 \
	history              15 \
	knormThreshold       0.0001 \
	energyDiffThreshold  1e-06 \
	nEnergyDiff          2 \
	alphaTstart          1 \
	alphaTmin            1e-10 \
	updateTestStepSize   yes \
	alphaTreduceFactor   0.1 \
	alphaTincreaseFactor 3 \
	nAlphaAdjustMax      3 \
	wolfeEnergy          0.0001 \
	wolfeGradient        0.9 \
	fdTest               no
kpoint   0.000000000000   0.000000000000   0.000000000000  1.00000000000000
kpoint-folding 3 3 1 
latt-move-scale 0 0 0
latt-scale 1 1 1 
lattice  \
	  23.436261999999999  -11.733459000000000    0.000000000000000  \
	   0.017994000000000   19.941849000000001    0.000000000000000  \
	   0.000000000000000    0.000000000000000   43.256312999999999 
lattice-minimize  \
	dirUpdateScheme      L-BFGS \
	linminMethod         DirUpdateRecommended \
	nIterations          0 \
	history              15 \
	knormThreshold       0 \
	energyDiffThreshold  1e-06 \
	nEnergyDiff          2 \
	alphaTstart          1 \
	alphaTmin            1e-10 \
	updateTestStepSize   yes \
	alphaTreduceFactor   0.1 \
	alphaTincreaseFactor 3 \
	nAlphaAdjustMax      3 \
	wolfeEnergy          0.0001 \
	wolfeGradient        0.9 \
	fdTest               no
lcao-params 30 1e-06 0.001
pcm-variant CANDLE
spintype z-spin
subspace-rotation-factor 1 yes
symmetries none
symmetry-threshold 0.0001
target-mu -0.1272 no

van-der-waals D3


Applied RMS atom displacement 0 bohrs to make symmetries exact.

---------- Initializing the Grid ----------
R = 
[      23.4363     -11.7335            0  ]
[     0.017994      19.9418            0  ]
[            0            0      43.2563  ]
unit cell volume = 20225.5
G =
[   0.267976   0.157673         -0  ]
[ -0.000241801   0.314933          0  ]
[          0         -0   0.145255  ]
Minimum fftbox size, Smin = [  96  96  176  ]
Chosen fftbox size, S = [  96  96  180  ]

---------- Exchange Correlation functional ----------
Initalized PBE GGA exchange.
Initalized PBE GGA correlation.

---------- Setting up pseudopotentials ----------
Width of ionic core gaussian charges (only for fluid interactions / plotting) set to 0.397384

Reading pseudopotential file '/projects/musgravc/apps/jdftx-1.6.0/build/pseudopotentials/GBRV_v1.5/c_pbe_v1.2.uspp':
  Title: C.  Created by USPP 7.3.6 on 3-2-2014
  Reference state energy: -5.406344.  4 valence electrons in orbitals:
    |200>  occupation: 2  eigenvalue: -0.504890
    |210>  occupation: 2  eigenvalue: -0.194356
  lMax: 1  lLocal: 2  QijEcut: 5
  4 projectors sampled on a log grid with 503 points:
    l: 0  eig: -0.504890  rCut: 1.3
    l: 0  eig: 0.000000  rCut: 1.3
    l: 1  eig: -0.194357  rCut: 1.3
    l: 1  eig: 0.000000  rCut: 1.3
  Partial core density with radius 1.1
  Transforming core density to a uniform radial grid of dG=0.02 with 1464 points.
  Transforming local potential to a uniform radial grid of dG=0.02 with 1464 points.
  Transforming nonlocal projectors to a uniform radial grid of dG=0.02 with 432 points.
  Transforming density augmentations to a uniform radial grid of dG=0.02 with 1464 points.
  Transforming atomic orbitals to a uniform radial grid of dG=0.02 with 432 points.
  Core radius for overlap checks: 1.30 bohrs.

Reading pseudopotential file '/projects/musgravc/apps/jdftx-1.6.0/build/pseudopotentials/GBRV_v1.5/n_pbe_v1.2.uspp':
  Title: N.  Created by USPP 7.3.6 on 3-2-2014
  Reference state energy: -9.763716.  5 valence electrons in orbitals:
    |200>  occupation: 2  eigenvalue: -0.681964
    |210>  occupation: 3  eigenvalue: -0.260726
  lMax: 1  lLocal: 2  QijEcut: 6
  4 projectors sampled on a log grid with 491 points:
    l: 0  eig: -0.681964  rCut: 1.15
    l: 0  eig: 0.000000  rCut: 1.15
    l: 1  eig: -0.260729  rCut: 1.2
    l: 1  eig: 0.500000  rCut: 1.2
  Partial core density with radius 0.8
  Transforming core density to a uniform radial grid of dG=0.02 with 1464 points.
  Transforming local potential to a uniform radial grid of dG=0.02 with 1464 points.
  Transforming nonlocal projectors to a uniform radial grid of dG=0.02 with 432 points.
  Transforming density augmentations to a uniform radial grid of dG=0.02 with 1464 points.
  Transforming atomic orbitals to a uniform radial grid of dG=0.02 with 432 points.
  Core radius for overlap checks: 1.20 bohrs.

Reading pseudopotential file '/projects/musgravc/apps/jdftx-1.6.0/build/pseudopotentials/GBRV_v1.5/ti_pbe_v1.4.uspp':
  Title: Ti.  Created by USPP 7.3.6 on 31-3-15
  Reference state energy: -59.020943.  12 valence electrons in orbitals:
    |300>  occupation: 2  eigenvalue: -2.777623
    |310>  occupation: 6  eigenvalue: -1.894596
    |400>  occupation: 2  eigenvalue: -0.438610
    |320>  occupation: 1  eigenvalue: -0.583119
  lMax: 2  lLocal: 3  QijEcut: 6
  6 projectors sampled on a log grid with 597 points:
    l: 0  eig: -2.777624  rCut: 1.8
    l: 0  eig: -0.438611  rCut: 1.8
    l: 1  eig: -1.894596  rCut: 1.8
    l: 1  eig: 0.500000  rCut: 1.8
    l: 2  eig: -0.583118  rCut: 1.8
    l: 2  eig: 0.150000  rCut: 1.8
  Partial core density with radius 0.8
  Transforming core density to a uniform radial grid of dG=0.02 with 1464 points.
  Transforming local potential to a uniform radial grid of dG=0.02 with 1464 points.
  Transforming nonlocal projectors to a uniform radial grid of dG=0.02 with 432 points.
  Transforming density augmentations to a uniform radial grid of dG=0.02 with 1464 points.
  Transforming atomic orbitals to a uniform radial grid of dG=0.02 with 432 points.
  Core radius for overlap checks: 1.80 bohrs.

Reading pseudopotential file '/projects/musgravc/apps/jdftx-1.6.0/build/pseudopotentials/GBRV_v1.5/o_pbe_v1.2.uspp':
  Title: O.  Created by USPP 7.3.6 on 3-2-2014
  Reference state energy: -15.894388.  6 valence electrons in orbitals:
    |200>  occupation: 2  eigenvalue: -0.878823
    |210>  occupation: 4  eigenvalue: -0.332131
  lMax: 2  lLocal: 2  QijEcut: 6
  5 projectors sampled on a log grid with 511 points:
    l: 0  eig: -0.878823  rCut: 1.25
    l: 0  eig: 0.000000  rCut: 1.25
    l: 1  eig: -0.332132  rCut: 1.25
    l: 1  eig: 0.000000  rCut: 1.25
    l: 2  eig: 1.000000  rCut: 1.25
  Partial core density with radius 0.7
  Transforming core density to a uniform radial grid of dG=0.02 with 1464 points.
  Transforming local potential to a uniform radial grid of dG=0.02 with 1464 points.
  Transforming nonlocal projectors to a uniform radial grid of dG=0.02 with 432 points.
  Transforming density augmentations to a uniform radial grid of dG=0.02 with 1464 points.
  Transforming atomic orbitals to a uniform radial grid of dG=0.02 with 432 points.
  Core radius for overlap checks: 1.25 bohrs.

Initialized 4 species with 52 total atoms.

Folded 1 k-points by 3x3x1 to 9 k-points.

---------- Setting up k-points, bands, fillings ----------
No reducable k-points. 
Computing the number of bands and number of electrons
Calculating initial fillings.
nElectrons: 224.000000   nBands: 135   nStates: 18

----- Setting up reduced wavefunction bases (one per k-point) -----
average nbasis = 86412.556 , ideal nbasis = 86404.907

----- Initializing Supercell corresponding to k-point mesh -----
Lattice vector linear combinations in supercell:
[   3   0   0  ]
[   0   3   0  ]
[   0   0   1  ]
Supercell lattice vectors:
[  70.3088  -35.2004  0  ]
[  0.053982  59.8255  0  ]
[  0  0  43.2563  ]

Initializing DFT-D3 calculator:
	Parameters set for gga-PBE functional
	s6:  1.000  s_r6:  1.217
	s8:  0.722  s_r8:  1.000
	Per-atom parameters loaded for:
	 C:  sqrtQ[a0]:  3.105  Rcov[a0]:  1.417  CN: [ 0.00 0.99 2.00 3.00 3.98 ]
	 N:  sqrtQ[a0]:  2.712  Rcov[a0]:  1.342  CN: [ 0.00 0.99 2.01 2.99 ]
	Ti:  sqrtQ[a0]:  6.288  Rcov[a0]:  2.305  CN: [ 0.00 1.83 3.87 ]
	 O:  sqrtQ[a0]:  2.594  Rcov[a0]:  1.191  CN: [ 0.00 0.99 1.99 ]

Initializing DFT-D2 calculator for fluid / solvation:
	 C:  C6:   30.35 Eh-a0^6  R0: 2.744 a0
	 N:  C6:   21.33 Eh-a0^6  R0: 2.640 a0
	Ti:  C6:  187.33 Eh-a0^6  R0: 2.952 a0
	 O:  C6:   12.14 Eh-a0^6  R0: 2.536 a0

---------- Setting up ewald sum ----------
Optimum gaussian width for ewald sums = 5.626124 bohr.
Real space sum over 567 unit cells with max indices [  4  4  3  ]
Reciprocal space sum over 7803 terms with max indices [  8  8  13  ]

Computing DFT-D3 correction:
# coordination-number C 3.299 3.321 3.335 3.331 3.312 3.290 3.312 3.497 3.328 3.312 3.302 3.336 3.299 3.299 3.321 3.766 3.268 3.301 3.319 3.333 3.326 3.303 3.299 3.328 3.335 3.319 3.299 3.268 3.497 3.321 3.301 3.303 3.312 3.299 3.312 3.326 3.766 3.336 3.290 3.312 3.331 3.333 3.321 3.302 2.020
# coordination-number N 3.165 3.184 3.165 3.184
# coordination-number Ti 5.714
# coordination-number O 1.051 1.014
# diagonal-C6 C 24.29 24.07 23.92 23.96 24.17 24.37 24.16 21.69 23.99 24.16 24.27 23.91 24.29 24.29 24.07 18.91 24.57 24.27 24.09 23.94 24.02 24.25 24.29 23.99 23.92 24.09 24.29 24.57 21.68 24.07 24.27 24.25 24.16 24.29 24.17 24.02 18.90 23.91 24.37 24.16 23.96 23.94 24.07 24.27 29.45
# diagonal-C6 N 15.60 15.60 15.60 15.60
# diagonal-C6 Ti 321.59
# diagonal-C6 O 12.77 12.80
EvdW_6 =   -0.038232
EvdW_8 =   -0.030621

---------- Allocating electronic variables ----------
Initializing wave functions:  linear combination of atomic orbitals
C pseudo-atom occupations:   s ( 2 )  p ( 2 )
N pseudo-atom occupations:   s ( 2 )  p ( 3 )
Ti pseudo-atom occupations:   s ( 2 0 )  p ( 6 )  d ( 4 )
O pseudo-atom occupations:   s ( 2 )  p ( 4 )
	FillingsUpdate:  mu: -0.127200000  nElectrons: 224.000000  magneticMoment: [ Abs: 0.00460  Tot: +0.00000 ]
LCAOMinimize: Iter:   0  G: -353.9915402774366271  |grad|_K:  3.114e-03  alpha:  1.000e+00
	FillingsUpdate:  mu: -0.127200000  nElectrons: 224.000000  magneticMoment: [ Abs: 0.00451  Tot: -0.00000 ]
LCAOMinimize: Iter:   1  G: -354.4313798000601992  |grad|_K:  1.750e-03  alpha:  8.936e-02  linmin: -1.330e-01  cgtest:  1.368e+00  t[s]:    374.38
LCAOMinimize: Encountered beta<0, resetting CG.
LCAOMinimize: 	Predicted alpha/alphaT>3.000000, increasing alphaT to 2.680680e-01.
LCAOMinimize: 	Step increased G by 1.274694e+01, reducing alpha to 5.590374e-02.
	FillingsUpdate:  mu: -0.127200000  nElectrons: 224.000000  magneticMoment: [ Abs: 0.00449  Tot: -0.00000 ]
LCAOMinimize: Iter:   2  G: -354.5616387920998136  |grad|_K:  1.501e-03  alpha:  5.590e-02  linmin: -1.308e-01  cgtest:  1.021e+00  t[s]:    677.55
LCAOMinimize: Encountered beta<0, resetting CG.
LCAOMinimize: 	Predicted alpha/alphaT>3.000000, increasing alphaT to 1.677112e-01.
LCAOMinimize: 	Predicted alpha/alphaT>3.000000, increasing alphaT to 5.031336e-01.
	FillingsUpdate:  mu: -0.127200000  nElectrons: 224.000000  magneticMoment: [ Abs: 0.00448  Tot: -0.00000 ]
LCAOMinimize: Iter:   3  G: -354.6584440544907579  |grad|_K:  1.363e-03  alpha:  5.374e-02  linmin: -1.368e-01  cgtest:  9.827e-01  t[s]:    906.46
LCAOMinimize: Encountered beta<0, resetting CG.
LCAOMinimize: 	Predicted alpha/alphaT>3.000000, increasing alphaT to 1.612309e-01.
LCAOMinimize: 	Predicted alpha/alphaT>3.000000, increasing alphaT to 4.836927e-01.
	FillingsUpdate:  mu: -0.127200000  nElectrons: 224.000000  magneticMoment: [ Abs: 0.00447  Tot: -0.00000 ]
LCAOMinimize: Iter:   4  G: -354.7274504835745574  |grad|_K:  1.293e-03  alpha:  4.525e-02  linmin: -1.425e-01  cgtest:  9.664e-01  t[s]:   1136.81
LCAOMinimize: Encountered beta<0, resetting CG.
LCAOMinimize: 	Wrong curvature in test step, increasing alphaT to 1.357629e-01.
	FillingsUpdate:  mu: -0.127200000  nElectrons: 224.000000  magneticMoment: [ Abs: 0.00447  Tot: -0.00000 ]
LCAOMinimize: Iter:   5  G: -354.7904630609334049  |grad|_K:  1.251e-03  alpha: -1.816e+01  linmin: -1.494e-01  cgtest:  9.519e-01  t[s]:   1285.22
	FillingsUpdate:  mu: -0.127200000  nElectrons: 224.000000  magneticMoment: [ Abs: 0.00447  Tot: -0.00000 ]
LCAOMinimize: Iter:   6  G: -354.8281466336264884  |grad|_K:  1.236e-03  alpha:  2.824e-02  linmin: -1.532e-01  cgtest:  9.633e-01  t[s]:   1437.63
LCAOMinimize: 	Wrong curvature in test step, increasing alphaT to 8.470565e-02.
	FillingsUpdate:  mu: -0.127200000  nElectrons: 224.000000  magneticMoment: [ Abs: 0.00447  Tot: -0.00000 ]
LCAOMinimize: Iter:   7  G: -354.8655280767723639  |grad|_K:  1.229e-03  alpha: -1.010e+00  linmin: -1.578e-01  cgtest:  9.581e-01  t[s]:   1586.92
	FillingsUpdate:  mu: -0.127200000  nElectrons: 224.000000  magneticMoment: [ Abs: 0.00448  Tot: -0.00000 ]
LCAOMinimize: Iter:   8  G: -354.9028892673539985  |grad|_K:  1.227e-03  alpha:  2.810e-02  linmin: -1.626e-01  cgtest:  9.533e-01  t[s]:   1738.88
LCAOMinimize: 	Wrong curvature in test step, increasing alphaT to 8.428850e-02.
	FillingsUpdate:  mu: -0.127200000  nElectrons: 224.000000  magneticMoment: [ Abs: 0.00448  Tot: -0.00000 ]
LCAOMinimize: Iter:   9  G: -354.9407467401246663  |grad|_K:  1.231e-03  alpha: -5.643e-01  linmin: -1.675e-01  cgtest:  9.484e-01  t[s]:   1886.97
	FillingsUpdate:  mu: -0.127200000  nElectrons: 224.000000  magneticMoment: [ Abs: 0.00448  Tot: -0.00000 ]
LCAOMinimize: Iter:  10  G: -354.9805804042988484  |grad|_K:  1.239e-03  alpha:  2.892e-02  linmin: -1.727e-01  cgtest:  9.419e-01  t[s]:   2038.48
LCAOMinimize: 	Wrong curvature in test step, increasing alphaT to 8.677012e-02.
	FillingsUpdate:  mu: -0.127200000  nElectrons: 224.000000  magneticMoment: [ Abs: 0.00448  Tot: -0.00000 ]
LCAOMinimize: Iter:  11  G: -355.0216330544664061  |grad|_K:  1.251e-03  alpha: -4.056e-01  linmin: -1.781e-01  cgtest:  9.369e-01  t[s]:   2187.89
	FillingsUpdate:  mu: -0.127200000  nElectrons: 224.000000  magneticMoment: [ Abs: 0.00449  Tot: -0.00000 ]
LCAOMinimize: Iter:  12  G: -355.0667086263979400  |grad|_K:  1.268e-03  alpha:  3.062e-02  linmin: -1.839e-01  cgtest:  9.278e-01  t[s]:   2339.83
LCAOMinimize: 	Wrong curvature in test step, increasing alphaT to 9.184746e-02.
	FillingsUpdate:  mu: -0.127200000  nElectrons: 224.000000  magneticMoment: [ Abs: 0.00449  Tot: -0.00000 ]
LCAOMinimize: Iter:  13  G: -355.1138958582573650  |grad|_K:  1.287e-03  alpha: -3.229e-01  linmin: -1.897e-01  cgtest:  9.216e-01  t[s]:   2487.94
	FillingsUpdate:  mu: -0.127200000  nElectrons: 224.000000  magneticMoment: [ Abs: 0.00450  Tot: -0.00000 ]
LCAOMinimize: Iter:  14  G: -355.1677056193311728  |grad|_K:  1.310e-03  alpha:  3.321e-02  linmin: -1.959e-01  cgtest:  9.079e-01  t[s]:   2639.55
LCAOMinimize: 	Wrong curvature in test step, increasing alphaT to 9.962711e-02.
	FillingsUpdate:  mu: -0.127200000  nElectrons: 224.000000  magneticMoment: [ Abs: 0.00450  Tot: -0.00000 ]
LCAOMinimize: Iter:  15  G: -355.2251000972315182  |grad|_K:  1.334e-03  alpha: -2.514e-01  linmin: -2.015e-01  cgtest:  8.982e-01  t[s]:   2788.28
	FillingsUpdate:  mu: -0.127200000  nElectrons: 224.000000  magneticMoment: [ Abs: 0.00451  Tot: -0.00000 ]
LCAOMinimize: Iter:  16  G: -355.2939985351555379  |grad|_K:  1.359e-03  alpha:  3.683e-02  linmin: -2.065e-01  cgtest:  8.739e-01  t[s]:   2940.22
LCAOMinimize: 	Wrong curvature in test step, increasing alphaT to 1.104802e-01.
	FillingsUpdate:  mu: -0.127200000  nElectrons: 224.000000  magneticMoment: [ Abs: 0.00452  Tot: -0.00000 ]
LCAOMinimize: Iter:  17  G: -355.3672310430071093  |grad|_K:  1.376e-03  alpha: -2.095e-01  linmin: -2.098e-01  cgtest:  8.524e-01  t[s]:   3088.37
	FillingsUpdate:  mu: -0.127200000  nElectrons: 224.000000  magneticMoment: [ Abs: 0.00453  Tot: -0.00000 ]
LCAOMinimize: Iter:  18  G: -355.4560930063263413  |grad|_K:  1.363e-03  alpha:  4.162e-02  linmin: -2.115e-01  cgtest:  7.986e-01  t[s]:   3239.32
LCAOMinimize: 	Wrong curvature in test step, increasing alphaT to 1.248602e-01.
	FillingsUpdate:  mu: -0.127200000  nElectrons: 224.000000  magneticMoment: [ Abs: 0.00455  Tot: -0.00000 ]
LCAOMinimize: Iter:  19  G: -355.5465615361183609  |grad|_K:  1.212e-03  alpha: -2.401e-01  linmin: -2.143e-01  cgtest:  7.469e-01  t[s]:   3388.03
	FillingsUpdate:  mu: -0.127200000  nElectrons: 224.000000  magneticMoment: [ Abs: 0.00460  Tot: -0.00001 ]
LCAOMinimize: Iter:  20  G: -355.6094278557873736  |grad|_K:  6.981e-04  alpha:  4.306e-02  linmin: -2.279e-01  cgtest:  7.448e-01  t[s]:   3539.50
LCAOMinimize: Encountered beta<0, resetting CG.
	FillingsUpdate:  mu: -0.127200000  nElectrons: 224.000000  magneticMoment: [ Abs: 0.00469  Tot: -0.00006 ]
LCAOMinimize: Iter:  21  G: -355.6170238718545420  |grad|_K:  8.092e-04  alpha:  9.296e-02  linmin:  1.057e-01  cgtest: -5.333e-01  t[s]:   3690.54
LCAOMinimize: 	Bad step direction: g.d > 0.
LCAOMinimize: 	Undoing step.
LCAOMinimize: 	Step failed: resetting search direction.
	FillingsUpdate:  mu: -0.127200000  nElectrons: 224.000000  magneticMoment: [ Abs: 0.00469  Tot: -0.00006 ]
LCAOMinimize: Iter:  22  G: -355.6170238718545420  |grad|_K:  8.092e-04  alpha:  0.000e+00
	FillingsUpdate:  mu: -0.127200000  nElectrons: 224.000000  magneticMoment: [ Abs: 0.00466  Tot: -0.00002 ]
LCAOMinimize: Iter:  23  G: -355.6276346145417051  |grad|_K:  1.999e-04  alpha:  5.026e-02  linmin:  5.400e-02  cgtest: -5.721e-01  t[s]:   3955.04
LCAOMinimize: 	Predicted alpha/alphaT>3.000000, increasing alphaT to 1.507856e-01.
	FillingsUpdate:  mu: -0.127200000  nElectrons: 224.000000  magneticMoment: [ Abs: 0.00474  Tot: -0.00003 ]
LCAOMinimize: Iter:  24  G: -355.6303886644560635  |grad|_K:  1.752e-04  alpha:  2.524e-01  linmin:  1.742e-02  cgtest:  4.605e-01  t[s]:   4145.47
	FillingsUpdate:  mu: -0.127200000  nElectrons: 224.000000  magneticMoment: [ Abs: 0.00477  Tot: -0.00004 ]
LCAOMinimize: Iter:  25  G: -355.6309529178557227  |grad|_K:  8.184e-05  alpha:  3.934e-02  linmin: -1.116e-01  cgtest:  7.436e-01  t[s]:   4298.81
LCAOMinimize: Encountered beta<0, resetting CG.
	FillingsUpdate:  mu: -0.127200000  nElectrons: 224.000000  magneticMoment: [ Abs: 0.00481  Tot: -0.00005 ]
LCAOMinimize: Iter:  26  G: -355.6312655274617782  |grad|_K:  5.951e-05  alpha:  9.017e-02  linmin: -9.236e-02  cgtest:  6.019e-01  t[s]:   4451.73
	FillingsUpdate:  mu: -0.127200000  nElectrons: 224.000000  magneticMoment: [ Abs: 0.00486  Tot: -0.00006 ]
LCAOMinimize: Iter:  27  G: -355.6315240517586744  |grad|_K:  8.630e-05  alpha:  1.958e-01  linmin:  1.964e-02  cgtest: -2.986e-01  t[s]:   4604.68
	FillingsUpdate:  mu: -0.127200000  nElectrons: 224.000000  magneticMoment: [ Abs: 0.00494  Tot: -0.00008 ]
LCAOMinimize: Iter:  28  G: -355.6316231508373562  |grad|_K:  7.361e-05  alpha:  5.809e-02  linmin: -2.109e-03  cgtest:  9.098e-01  t[s]:   4757.07
LCAOMinimize: Encountered beta<0, resetting CG.
	FillingsUpdate:  mu: -0.127200000  nElectrons: 224.000000  magneticMoment: [ Abs: 0.00497  Tot: -0.00009 ]
LCAOMinimize: Iter:  29  G: -355.6317209333284950  |grad|_K:  3.051e-05  alpha:  4.569e-02  linmin: -1.672e-01  cgtest:  5.186e-01  t[s]:   4911.24
LCAOMinimize: Encountered beta<0, resetting CG.
LCAOMinimize: 	Wrong curvature in test step, increasing alphaT to 1.370668e-01.
	FillingsUpdate:  mu: -0.127200000  nElectrons: 224.000000  magneticMoment: [ Abs: 0.00499  Tot: -0.00009 ]
LCAOMinimize: Iter:  30  G: -355.6317572199691881  |grad|_K:  2.544e-05  alpha: -9.038e-01  linmin: -2.440e-01  cgtest:  9.947e-01  t[s]:   5059.97
LCAOMinimize: Encountered beta<0, resetting CG.
LCAOMinimize: None of the convergence criteria satisfied after 30 iterations.
----- createFluidSolver() ----- (Fluid-side solver setup)
   Initializing fluid molecule 'H2O'
     Initializing site 'O'
       Electron density: proportional to exp(-r/0.36935)*erfc((r-0.51523)/0.36823) with norm 6.826
       Charge density: gaussian nuclear width 0.478731 with net site charge 0.826
       Polarizability: cuspless exponential with width 0.32 and norm 3.73
       Hard sphere radius: 2.57003 bohrs
       Positions in reference frame:
         [ +0.000000 +0.000000 +0.000000 ]
     Initializing site 'H'
       Electron density: proportional to exp(-r/0.34641)*erfc((r-0)/0.390882) with norm 0.587
       Charge density: gaussian nuclear width 0.377945 with net site charge -0.413
       Polarizability: cuspless exponential with width 0.39 and norm 3.3
       Positions in reference frame:
         [ +0.000000 -1.441945 +1.122523 ]
         [ +0.000000 +1.441945 +1.122523 ]
     Net charge: 0   dipole magnitude: 0.927204
     Initializing spherical shell mfKernel with radius 2.61727 Bohr
     deltaS corrections:
       site 'O': -7.54299
       site 'H': -6.83917
   Initializing fluid molecule 'Na+'
     Initializing site 'Na'
       Electron density: proportional to exp(-r/0.19682)*erfc((r-0.71491)/0.41314) with norm 8.1383
       Charge density: gaussian nuclear width 0.365347 with net site charge -1
       Hard sphere radius: 1.86327 bohrs
       Positions in reference frame:
         [ +0.000000 +0.000000 +0.000000 ]
     Net charge: -1   dipole magnitude: 0
     Initializing gaussian mfKernel with width: 1.55004 Bohr
     deltaS corrections:
       site 'Na': -22.3555
   Initializing fluid molecule 'F-'
     Initializing site 'F'
       Electron density: proportional to exp(-r/0.38886)*erfc((r-0)/0.438782) with norm 8
       Charge density: gaussian nuclear width 0.374796 with net site charge 1
       Hard sphere radius: 2.39995 bohrs
       Positions in reference frame:
         [ +0.000000 +0.000000 +0.000000 ]
     Net charge: 1   dipole magnitude: 0
     Initializing gaussian mfKernel with width: 1.59012 Bohr
     deltaS corrections:
       site 'F': -9.04335

Correction to mu due to finite nuclear width = -0.0109887
   Cavity determined by nc: 0.00142 and sigma: 0.707107
   Nonlocal vdW cavity from gaussian model electron density with norm = 8 and sigma = 0.993594 bohr
   Charge asymmetry in cavity with sensitivity pCavity = 36.5 e-bohr/Eh
   Electrostatic cavity expanded by eta = 1.46 bohrs
   Weighted density cavitation model constrained by Nbulk: 0.0049383 bohr^-3, Pvap: 3.14029 kPa, Rvdw: 2.61727 bohr and sigmaBulk: 4.62e-05 Eh/bohr^2 at T: 298 K.
   Weighted density dispersion model using vdW pair potentials with single solvent site with sqrtC6eff: 0.77 SI.


---- Citations for features of the code used in this run ----

   Software package:
      R. Sundararaman, K. Letchworth-Weaver, K.A. Schwarz, D. Gunceler, Y. Ozhabes and T.A. Arias, 'JDFTx: software for joint density-functional theory', SoftwareX 6, 278 (2017)

   gga-PBE exchange-correlation functional:
      J.P. Perdew, K. Burke and M. Ernzerhof, Phys. Rev. Lett. 77, 3865 (1996)

   Pseudopotentials:
      KF Garrity, JW Bennett, KM Rabe and D Vanderbilt, Comput. Mater. Sci. 81, 446 (2014)

   DFT-D3 dispersion correction:
      S. Grimme, J. Antony, S. Ehrlich and H. Krieg, J. Chem. Phys. 132, 154104 (2010)

   DFT-D2 dispersion correction:
      S. Grimme, J. Comput. Chem. 27, 1787 (2006)

   Charge-asymmetric nonlocally-determined local-electric (CANDLE) solvation model:
      R. Sundararaman and W.A. Goddard III, J. Chem. Phys. 142, 064107 (2015)

   Total energy minimization with Auxiliary Hamiltonian:
      C. Freysoldt, S. Boeck, and J. Neugebauer, Phys. Rev. B 79, 241103(R) (2009)

   Grand-canonical (fixed-potential) DFT:
      R. Sundararaman, W. A. Goddard III and T. A. Arias, J. Chem. Phys. 146, 114104 (2017)

   Linear-tetrahedron sampling for density of states:
      G. Lehmann and M. Taut, Phys. status solidi (b) 54, 469 (1972)

This list may not be complete. Please suggest additional citations or
report any other bugs at https://github.com/shankar1729/jdftx/issues

Initialization completed successfully at t[s]:   5080.84


Computing DFT-D3 correction:
# coordination-number C 3.299 3.321 3.335 3.331 3.312 3.290 3.312 3.497 3.328 3.312 3.302 3.336 3.299 3.299 3.321 3.766 3.268 3.301 3.319 3.333 3.326 3.303 3.299 3.328 3.335 3.319 3.299 3.268 3.497 3.321 3.301 3.303 3.312 3.299 3.312 3.326 3.766 3.336 3.290 3.312 3.331 3.333 3.321 3.302 2.020
# coordination-number N 3.165 3.184 3.165 3.184
# coordination-number Ti 5.714
# coordination-number O 1.051 1.014
# diagonal-C6 C 24.29 24.07 23.92 23.96 24.17 24.37 24.16 21.69 23.99 24.16 24.27 23.91 24.29 24.29 24.07 18.91 24.57 24.27 24.09 23.94 24.02 24.25 24.29 23.99 23.92 24.09 24.29 24.57 21.68 24.07 24.27 24.25 24.16 24.29 24.17 24.02 18.90 23.91 24.37 24.16 23.96 23.94 24.07 24.27 29.45
# diagonal-C6 N 15.60 15.60 15.60 15.60
# diagonal-C6 Ti 321.59
# diagonal-C6 O 12.77 12.80
EvdW_6 =   -0.038232
EvdW_8 =   -0.030621
Fluid solver invoked on fresh (random / LCAO) wavefunctions
Running a vacuum solve first:

-------- Initial electronic minimization -----------
	FillingsUpdate:  mu: -0.177809546  nElectrons: 224.000000  magneticMoment: [ Abs: 0.00499  Tot: -0.00009 ]
ElecMinimize: Iter:   0  G: -355.630359218900026  |grad|_K:  1.463e-04  alpha:  1.000e+00
	FillingsUpdate:  mu: -0.146449589  nElectrons: 224.000000  magneticMoment: [ Abs: 0.00323  Tot: -0.00017 ]
	SubspaceRotationAdjust: set factor to 0.86
ElecMinimize: Iter:   1  G: -358.613464643900841  |grad|_K:  6.455e-05  alpha:  6.731e-01  linmin:  7.866e-04  t[s]:   5329.01
	FillingsUpdate:  mu: -0.052574666  nElectrons: 224.000000  magneticMoment: [ Abs: 0.00465  Tot: -0.00204 ]
	SubspaceRotationAdjust: set factor to 0.497
ElecMinimize: Iter:   2  G: -358.626103533403182  |grad|_K:  1.048e-04  alpha:  9.061e-02  linmin:  4.839e-03  t[s]:   5481.03
ElecMinimize: 	Bad step direction: g.d > 0.
ElecMinimize: 	Undoing step.
ElecMinimize: 	Step failed: resetting search direction.
	FillingsUpdate:  mu: -0.052574666  nElectrons: 224.000000  magneticMoment: [ Abs: 0.00465  Tot: -0.00204 ]
	SubspaceRotationAdjust: set factor to 0.315
ElecMinimize: Iter:   3  G: -358.626103533402272  |grad|_K:  8.345e-05  alpha:  0.000e+00
	FillingsUpdate:  mu: -0.102061783  nElectrons: 224.000000  magneticMoment: [ Abs: 0.00347  Tot: -0.00041 ]
	SubspaceRotationAdjust: set factor to 0.162
ElecMinimize: Iter:   4  G: -358.733713989465343  |grad|_K:  3.596e-05  alpha:  7.453e-02  linmin:  3.928e-04  t[s]:   5747.07
ElecMinimize: 	Predicted alpha/alphaT>3.000000, increasing alphaT to 2.235937e-01.
	FillingsUpdate:  mu: -0.097013454  nElectrons: 224.000000  magneticMoment: [ Abs: 0.00306  Tot: -0.00040 ]
	SubspaceRotationAdjust: set factor to 0.248
ElecMinimize: Iter:   5  G: -358.886608770513135  |grad|_K:  1.925e-05  alpha:  5.778e-01  linmin: -1.056e-05  t[s]:   5938.18
	FillingsUpdate:  mu: -0.051526712  nElectrons: 224.000000  magneticMoment: [ Abs: 0.00449  Tot: -0.00173 ]
	SubspaceRotationAdjust: set factor to 0.181
ElecMinimize: Iter:   6  G: -358.933576733912503  |grad|_K:  2.077e-05  alpha:  6.070e-01  linmin:  6.321e-04  t[s]:   6090.24
	FillingsUpdate:  mu: -0.064742995  nElectrons: 224.000000  magneticMoment: [ Abs: 0.00422  Tot: -0.00122 ]
	SubspaceRotationAdjust: set factor to 0.134
	SubspaceRotationAdjust: resetting CG because factor has changed by 0.133849
ElecMinimize: 	State modified externally: resetting search direction.
ElecMinimize: Iter:   7  G: -358.950189735411925  |grad|_K:  9.325e-06  alpha:  2.313e-01
	FillingsUpdate:  mu: -0.051629563  nElectrons: 224.000000  magneticMoment: [ Abs: 0.00476  Tot: -0.00152 ]
	SubspaceRotationAdjust: set factor to 0.266
ElecMinimize: Iter:   8  G: -358.957372678636489  |grad|_K:  6.112e-06  alpha:  3.939e-01  linmin:  4.996e-05  t[s]:   6480.02
	FillingsUpdate:  mu: -0.071000822  nElectrons: 224.000000  magneticMoment: [ Abs: 0.00501  Tot: -0.00142 ]
	SubspaceRotationAdjust: set factor to 0.193
ElecMinimize: Iter:   9  G: -358.961406953704568  |grad|_K:  5.342e-06  alpha:  5.128e-01  linmin: -1.237e-04  t[s]:   6632.01
	FillingsUpdate:  mu: -0.053072593  nElectrons: 224.000000  magneticMoment: [ Abs: 0.00682  Tot: -0.00252 ]
	SubspaceRotationAdjust: set factor to 0.121
ElecMinimize: Iter:  10  G: -358.963792365017298  |grad|_K:  3.894e-06  alpha:  3.853e-01  linmin:  2.540e-05  t[s]:   6783.87
	FillingsUpdate:  mu: -0.062948006  nElectrons: 224.000000  magneticMoment: [ Abs: 0.00864  Tot: -0.00320 ]
	SubspaceRotationAdjust: set factor to 0.113
ElecMinimize: Iter:  11  G: -358.965655564656117  |grad|_K:  3.667e-06  alpha:  5.864e-01  linmin: -1.288e-05  t[s]:   6935.48
	FillingsUpdate:  mu: -0.058576094  nElectrons: 224.000000  magneticMoment: [ Abs: 0.01120  Tot: -0.00461 ]
	SubspaceRotationAdjust: set factor to 0.121
ElecMinimize: Iter:  12  G: -358.967330129620848  |grad|_K:  2.089e-06  alpha:  5.850e-01  linmin:  1.579e-05  t[s]:   7087.84
	FillingsUpdate:  mu: -0.060773164  nElectrons: 224.000000  magneticMoment: [ Abs: 0.01351  Tot: -0.00583 ]
	SubspaceRotationAdjust: set factor to 0.13
ElecMinimize: Iter:  13  G: -358.968102035168442  |grad|_K:  1.645e-06  alpha:  8.499e-01  linmin:  4.711e-06  t[s]:   7239.86
	FillingsUpdate:  mu: -0.058650188  nElectrons: 224.000000  magneticMoment: [ Abs: 0.01626  Tot: -0.00759 ]
	SubspaceRotationAdjust: set factor to 0.14
ElecMinimize: Iter:  14  G: -358.968502758909210  |grad|_K:  1.348e-06  alpha:  7.051e-01  linmin:  5.608e-06  t[s]:   7391.10
	FillingsUpdate:  mu: -0.059198362  nElectrons: 224.000000  magneticMoment: [ Abs: 0.02077  Tot: -0.01060 ]
	SubspaceRotationAdjust: set factor to 0.156
ElecMinimize: Iter:  15  G: -358.968850699015206  |grad|_K:  1.116e-06  alpha:  9.250e-01  linmin:  5.093e-05  t[s]:   7542.61
	FillingsUpdate:  mu: -0.060762161  nElectrons: 224.000000  magneticMoment: [ Abs: 0.02445  Tot: -0.01304 ]
	SubspaceRotationAdjust: set factor to 0.168
ElecMinimize: Iter:  16  G: -358.968996974840820  |grad|_K:  6.790e-07  alpha:  5.695e-01  linmin: -1.428e-05  t[s]:   7694.41
	FillingsUpdate:  mu: -0.060882959  nElectrons: 224.000000  magneticMoment: [ Abs: 0.02870  Tot: -0.01568 ]
	SubspaceRotationAdjust: set factor to 0.202
ElecMinimize: Iter:  17  G: -358.969053584557457  |grad|_K:  5.146e-07  alpha:  5.810e-01  linmin:  1.918e-05  t[s]:   7846.34
	FillingsUpdate:  mu: -0.060639971  nElectrons: 224.000000  magneticMoment: [ Abs: 0.03683  Tot: -0.02047 ]
	SubspaceRotationAdjust: set factor to 0.25
ElecMinimize: Iter:  18  G: -358.969096226792658  |grad|_K:  4.096e-07  alpha:  7.714e-01  linmin:  3.778e-05  t[s]:   7998.67
	FillingsUpdate:  mu: -0.060806906  nElectrons: 224.000000  magneticMoment: [ Abs: 0.05067  Tot: -0.02807 ]
	SubspaceRotationAdjust: set factor to 0.302
ElecMinimize: Iter:  19  G: -358.969126121501802  |grad|_K:  3.815e-07  alpha:  8.532e-01  linmin: -2.093e-07  t[s]:   8151.28
	FillingsUpdate:  mu: -0.060472456  nElectrons: 224.000000  magneticMoment: [ Abs: 0.07586  Tot: -0.04161 ]
	SubspaceRotationAdjust: set factor to 0.367
ElecMinimize: Iter:  20  G: -358.969151415651652  |grad|_K:  4.154e-07  alpha:  8.266e-01  linmin:  3.111e-06  t[s]:   8304.16
	FillingsUpdate:  mu: -0.060777536  nElectrons: 224.000000  magneticMoment: [ Abs: 0.13140  Tot: -0.07043 ]
	SubspaceRotationAdjust: set factor to 0.335
ElecMinimize: Iter:  21  G: -358.969182630983369  |grad|_K:  6.303e-07  alpha:  8.621e-01  linmin: -9.725e-06  t[s]:   8457.75
	FillingsUpdate:  mu: -0.057499429  nElectrons: 224.000000  magneticMoment: [ Abs: 0.31336  Tot: -0.16896 ]
	SubspaceRotationAdjust: set factor to 0.228
ElecMinimize: Iter:  22  G: -358.969254225371571  |grad|_K:  2.093e-06  alpha:  8.946e-01  linmin:  2.789e-04  t[s]:   8608.14
ElecMinimize: 	Step increased G by 1.303394e-02, reducing alpha to 3.131892e-05.
ElecMinimize: 	Step increased G by 1.303557e-02, reducing alpha to 3.131892e-06.
ElecMinimize: 	Step increased G by 1.303573e-02, reducing alpha to 3.131892e-07.
ElecMinimize: 	Step failed to reduce G after 3 attempts. Quitting step.
ElecMinimize: 	Undoing step.
ElecMinimize: 	Step failed: resetting search direction.
	FillingsUpdate:  mu: -0.063378596  nElectrons: 224.000000  magneticMoment: [ Abs: 0.31331  Tot: -0.16896 ]
	SubspaceRotationAdjust: set factor to 0.127
ElecMinimize: Iter:  23  G: -358.956218492817698  |grad|_K:  4.144e-06  alpha:  3.132e-07
	FillingsUpdate:  mu: -0.053781487  nElectrons: 224.000000  magneticMoment: [ Abs: 0.40694  Tot: -0.19427 ]
	SubspaceRotationAdjust: set factor to 0.145
ElecMinimize: Iter:  24  G: -358.963085661974105  |grad|_K:  6.815e-06  alpha:  1.881e+00  linmin: -8.709e-05  t[s]:   9188.28
	FillingsUpdate:  mu: -0.062714859  nElectrons: 224.000000  magneticMoment: [ Abs: 0.50917  Tot: -0.25640 ]
	SubspaceRotationAdjust: set factor to 0.133
ElecMinimize: Iter:  25  G: -358.968422061992669  |grad|_K:  4.076e-06  alpha:  6.021e-01  linmin:  5.032e-04  t[s]:   9339.68
	FillingsUpdate:  mu: -0.057280644  nElectrons: 224.000000  magneticMoment: [ Abs: 0.57854  Tot: -0.32673 ]
	SubspaceRotationAdjust: set factor to 0.12
ElecMinimize: Iter:  26  G: -358.970139214868311  |grad|_K:  1.890e-06  alpha:  5.154e-01  linmin:  1.122e-04  t[s]:   9492.05
	FillingsUpdate:  mu: -0.061091343  nElectrons: 224.000000  magneticMoment: [ Abs: 0.60678  Tot: -0.34055 ]
	SubspaceRotationAdjust: set factor to 0.111
ElecMinimize: Iter:  27  G: -358.970561358104021  |grad|_K:  1.331e-06  alpha:  5.636e-01  linmin: -2.280e-04  t[s]:   9644.15
	FillingsUpdate:  mu: -0.059090375  nElectrons: 224.000000  magneticMoment: [ Abs: 0.67164  Tot: -0.38268 ]
	SubspaceRotationAdjust: set factor to 0.131
ElecMinimize: Iter:  28  G: -358.970864693037470  |grad|_K:  1.241e-06  alpha:  8.061e-01  linmin:  2.143e-05  t[s]:   9796.04
	FillingsUpdate:  mu: -0.059807625  nElectrons: 224.000000  magneticMoment: [ Abs: 0.76617  Tot: -0.43200 ]
	SubspaceRotationAdjust: set factor to 0.151
ElecMinimize: Iter:  29  G: -358.971189248155099  |grad|_K:  1.375e-06  alpha:  1.006e+00  linmin:  4.887e-05  t[s]:   9948.25
	FillingsUpdate:  mu: -0.058786626  nElectrons: 224.000000  magneticMoment: [ Abs: 0.90184  Tot: -0.49295 ]
	SubspaceRotationAdjust: set factor to 0.17
ElecMinimize: Iter:  30  G: -358.971575865802038  |grad|_K:  1.398e-06  alpha:  9.807e-01  linmin: -1.024e-04  t[s]:  10099.02
	FillingsUpdate:  mu: -0.059763142  nElectrons: 224.000000  magneticMoment: [ Abs: 1.03065  Tot: -0.55362 ]
	SubspaceRotationAdjust: set factor to 0.191
ElecMinimize: Iter:  31  G: -358.971933745819342  |grad|_K:  1.336e-06  alpha:  8.611e-01  linmin: -7.384e-05  t[s]:  10250.49
	FillingsUpdate:  mu: -0.059170136  nElectrons: 224.000000  magneticMoment: [ Abs: 1.15301  Tot: -0.63924 ]
	SubspaceRotationAdjust: set factor to 0.217
ElecMinimize: Iter:  32  G: -358.972226367848918  |grad|_K:  1.171e-06  alpha:  7.652e-01  linmin:  9.557e-05  t[s]:  10402.66
	FillingsUpdate:  mu: -0.059284790  nElectrons: 224.000000  magneticMoment: [ Abs: 1.28911  Tot: -0.75829 ]
	SubspaceRotationAdjust: set factor to 0.266
ElecMinimize: Iter:  33  G: -358.972522628004924  |grad|_K:  1.158e-06  alpha:  1.045e+00  linmin:  4.661e-05  t[s]:  10553.63
	FillingsUpdate:  mu: -0.060405133  nElectrons: 224.000000  magneticMoment: [ Abs: 1.38023  Tot: -0.84554 ]
	SubspaceRotationAdjust: set factor to 0.299
ElecMinimize: Iter:  34  G: -358.972738985246735  |grad|_K:  1.039e-06  alpha:  7.852e-01  linmin: -5.676e-05  t[s]:  10704.65
	FillingsUpdate:  mu: -0.059281277  nElectrons: 224.000000  magneticMoment: [ Abs: 1.45672  Tot: -0.94875 ]
	SubspaceRotationAdjust: set factor to 0.241
ElecMinimize: Iter:  35  G: -358.972905444698881  |grad|_K:  1.119e-06  alpha:  7.216e-01  linmin:  1.568e-04  t[s]:  10855.89
	FillingsUpdate:  mu: -0.061061114  nElectrons: 224.000000  magneticMoment: [ Abs: 1.48344  Tot: -0.98312 ]
	SubspaceRotationAdjust: set factor to 0.208
ElecMinimize: Iter:  36  G: -358.972994268429318  |grad|_K:  8.777e-07  alpha:  3.580e-01  linmin:  4.837e-05  t[s]:  11006.87
	FillingsUpdate:  mu: -0.060421621  nElectrons: 224.000000  magneticMoment: [ Abs: 1.52556  Tot: -1.06225 ]
	SubspaceRotationAdjust: set factor to 0.237
ElecMinimize: Iter:  37  G: -358.973101601613166  |grad|_K:  7.597e-07  alpha:  6.771e-01  linmin:  4.705e-05  t[s]:  11158.30
	FillingsUpdate:  mu: -0.060733846  nElectrons: 224.000000  magneticMoment: [ Abs: 1.55310  Tot: -1.12047 ]
	SubspaceRotationAdjust: set factor to 0.296
ElecMinimize: Iter:  38  G: -358.973185779323671  |grad|_K:  6.273e-07  alpha:  7.055e-01  linmin:  4.021e-06  t[s]:  11310.55
	FillingsUpdate:  mu: -0.061864239  nElectrons: 224.000000  magneticMoment: [ Abs: 1.56488  Tot: -1.15584 ]
	SubspaceRotationAdjust: set factor to 0.225
ElecMinimize: Iter:  39  G: -358.973241433144835  |grad|_K:  6.672e-07  alpha:  6.730e-01  linmin:  5.168e-05  t[s]:  11462.33
	FillingsUpdate:  mu: -0.060789722  nElectrons: 224.000000  magneticMoment: [ Abs: 1.58112  Tot: -1.19358 ]
	SubspaceRotationAdjust: set factor to 0.176
ElecMinimize: Iter:  40  G: -358.973269575763709  |grad|_K:  4.737e-07  alpha:  3.169e-01  linmin:  8.264e-05  t[s]:  11613.66
	FillingsUpdate:  mu: -0.061123275  nElectrons: 224.000000  magneticMoment: [ Abs: 1.58459  Tot: -1.21649 ]
	SubspaceRotationAdjust: set factor to 0.242
ElecMinimize: Iter:  41  G: -358.973297837773089  |grad|_K:  3.654e-07  alpha:  6.161e-01  linmin:  3.527e-05  t[s]:  11765.65
	FillingsUpdate:  mu: -0.061560866  nElectrons: 224.000000  magneticMoment: [ Abs: 1.58173  Tot: -1.22598 ]
	SubspaceRotationAdjust: set factor to 0.258
ElecMinimize: Iter:  42  G: -358.973314200675134  |grad|_K:  3.024e-07  alpha:  5.889e-01  linmin:  1.803e-05  t[s]:  11917.38
	FillingsUpdate:  mu: -0.061017887  nElectrons: 224.000000  magneticMoment: [ Abs: 1.58311  Tot: -1.23756 ]
	SubspaceRotationAdjust: set factor to 0.23
ElecMinimize: Iter:  43  G: -358.973322592250611  |grad|_K:  2.751e-07  alpha:  4.387e-01  linmin: -2.108e-06  t[s]:  12069.57
	FillingsUpdate:  mu: -0.061365148  nElectrons: 224.000000  magneticMoment: [ Abs: 1.57697  Tot: -1.23965 ]
	SubspaceRotationAdjust: set factor to 0.269
ElecMinimize: Iter:  44  G: -358.973329793090159  |grad|_K:  1.876e-07  alpha:  4.526e-01  linmin:  3.205e-06  t[s]:  12222.81
	FillingsUpdate:  mu: -0.061370904  nElectrons: 224.000000  magneticMoment: [ Abs: 1.57097  Tot: -1.24251 ]
	SubspaceRotationAdjust: set factor to 0.35
ElecMinimize: Iter:  45  G: -358.973335535593606  |grad|_K:  1.473e-07  alpha:  7.775e-01  linmin:  4.787e-06  t[s]:  12376.19
	FillingsUpdate:  mu: -0.061177341  nElectrons: 224.000000  magneticMoment: [ Abs: 1.56717  Tot: -1.24412 ]
	SubspaceRotationAdjust: set factor to 0.293
ElecMinimize: Iter:  46  G: -358.973338380155496  |grad|_K:  1.637e-07  alpha:  6.243e-01  linmin:  2.826e-06  t[s]:  12527.19
	FillingsUpdate:  mu: -0.061456468  nElectrons: 224.000000  magneticMoment: [ Abs: 1.56138  Tot: -1.24052 ]
	SubspaceRotationAdjust: set factor to 0.236
ElecMinimize: Iter:  47  G: -358.973340003406236  |grad|_K:  1.275e-07  alpha:  2.883e-01  linmin: -1.425e-06  t[s]:  12670.03
	FillingsUpdate:  mu: -0.061353905  nElectrons: 224.000000  magneticMoment: [ Abs: 1.55657  Tot: -1.23929 ]
	SubspaceRotationAdjust: set factor to 0.333
ElecMinimize: Iter:  48  G: -358.973341920271253  |grad|_K:  9.530e-08  alpha:  5.617e-01  linmin:  4.134e-06  t[s]:  12814.58
	FillingsUpdate:  mu: -0.061220711  nElectrons: 224.000000  magneticMoment: [ Abs: 1.55326  Tot: -1.23801 ]
	SubspaceRotationAdjust: set factor to 0.257
ElecMinimize: Iter:  49  G: -358.973343126754344  |grad|_K:  1.011e-07  alpha:  6.339e-01  linmin:  1.972e-06  t[s]:  12945.71
	FillingsUpdate:  mu: -0.061382132  nElectrons: 224.000000  magneticMoment: [ Abs: 1.54961  Tot: -1.23440 ]
	SubspaceRotationAdjust: set factor to 0.209
ElecMinimize: Iter:  50  G: -358.973343743385954  |grad|_K:  8.013e-08  alpha:  2.862e-01  linmin: -2.915e-06  t[s]:  13077.11
	FillingsUpdate:  mu: -0.061326385  nElectrons: 224.000000  magneticMoment: [ Abs: 1.54670  Tot: -1.23152 ]
	SubspaceRotationAdjust: set factor to 0.324
ElecMinimize: Iter:  51  G: -358.973344463171827  |grad|_K:  5.873e-08  alpha:  5.321e-01  linmin: -7.654e-07  t[s]:  13208.21
	FillingsUpdate:  mu: -0.061206585  nElectrons: 224.000000  magneticMoment: [ Abs: 1.54598  Tot: -1.23065 ]
	SubspaceRotationAdjust: set factor to 0.277
ElecMinimize: Iter:  52  G: -358.973344820143325  |grad|_K:  5.845e-08  alpha:  4.921e-01  linmin: -6.169e-07  t[s]:  13339.20
	FillingsUpdate:  mu: -0.061281448  nElectrons: 224.000000  magneticMoment: [ Abs: 1.54463  Tot: -1.22848 ]
	SubspaceRotationAdjust: set factor to 0.251
ElecMinimize: Iter:  53  G: -358.973345030112625  |grad|_K:  4.007e-08  alpha:  2.921e-01  linmin: -1.883e-07  t[s]:  13470.62
	FillingsUpdate:  mu: -0.061259924  nElectrons: 224.000000  magneticMoment: [ Abs: 1.54413  Tot: -1.22673 ]
	SubspaceRotationAdjust: set factor to 0.346
ElecMinimize: Iter:  54  G: -358.973345242449682  |grad|_K:  2.784e-08  alpha:  6.295e-01  linmin:  1.034e-06  t[s]:  13602.37
	FillingsUpdate:  mu: -0.061220174  nElectrons: 224.000000  magneticMoment: [ Abs: 1.54429  Tot: -1.22597 ]
	SubspaceRotationAdjust: set factor to 0.297
ElecMinimize: Iter:  55  G: -358.973345337978515  |grad|_K:  3.064e-08  alpha:  5.868e-01  linmin:  1.766e-07  t[s]:  13733.81
	FillingsUpdate:  mu: -0.061269109  nElectrons: 224.000000  magneticMoment: [ Abs: 1.54401  Tot: -1.22473 ]
	SubspaceRotationAdjust: set factor to 0.244
ElecMinimize: Iter:  56  G: -358.973345394533226  |grad|_K:  2.423e-08  alpha:  2.869e-01  linmin: -2.016e-07  t[s]:  13865.76
ElecMinimize: Converged (|Delta G|<1.000000e-07 for 2 iters).
Setting wave functions to eigenvectors of Hamiltonian
Converging empty states (this may take a while): |deigs|: 2.855e-03
Vacuum energy after initial minimize, F = -358.973345394533226

Shifting auxilliary hamiltonian by -0.065931 to set nElectrons=224.000000

-------- Electronic minimization -----------
	Linear fluid (dielectric constant: 78.4, screening length: 8.12261 Bohr) occupying 0.712148 of unit cell:	Completed after 24 iterations at t[s]:  14480.30
	FillingsUpdate:  mu: -0.127200000  nElectrons: 224.000000  magneticMoment: [ Abs: 1.54871  Tot: -1.22909 ]
ElecMinimize: Iter:   0  G: -358.968632172053333  |grad|_K:  4.327e-06  alpha:  1.000e+00
	Linear fluid (dielectric constant: 78.4, screening length: 8.12261 Bohr) occupying 0.712919 of unit cell:	Completed after 20 iterations at t[s]:  14606.92
	Linear fluid (dielectric constant: 78.4, screening length: 8.12261 Bohr) occupying 0.712341 of unit cell:	Completed after 19 iterations at t[s]:  14663.36
	FillingsUpdate:  mu: -0.127200000  nElectrons: 223.896336  magneticMoment: [ Abs: 1.46769  Tot: -1.14271 ]
	SubspaceRotationAdjust: set factor to 0.154
ElecMinimize: Iter:   1  G: -358.969186143112836  |grad|_K:  4.051e-06  alpha:  2.146e-01  linmin:  9.387e-03  t[s]:  14720.91
	Linear fluid (dielectric constant: 78.4, screening length: 8.12261 Bohr) occupying 0.712576 of unit cell:	Completed after 11 iterations at t[s]:  14777.70
	Linear fluid (dielectric constant: 78.4, screening length: 8.12261 Bohr) occupying 0.712962 of unit cell:	Completed after 13 iterations at t[s]:  14828.56
	FillingsUpdate:  mu: -0.127200000  nElectrons: 223.890233  magneticMoment: [ Abs: 1.42581  Tot: -1.04584 ]
	SubspaceRotationAdjust: set factor to 0.242
ElecMinimize: Iter:   2  G: -358.970443561138097  |grad|_K:  2.262e-06  alpha:  5.986e-01  linmin:  4.676e-04  t[s]:  14885.64
	Linear fluid (dielectric constant: 78.4, screening length: 8.12261 Bohr) occupying 0.713217 of unit cell:	Completed after 14 iterations at t[s]:  14944.57
	Linear fluid (dielectric constant: 78.4, screening length: 8.12261 Bohr) occupying 0.713197 of unit cell:	Completed after 7 iterations at t[s]:  14991.36
	FillingsUpdate:  mu: -0.127200000  nElectrons: 223.925643  magneticMoment: [ Abs: 1.43016  Tot: -1.01314 ]
	SubspaceRotationAdjust: set factor to 0.177
ElecMinimize: Iter:   3  G: -358.971013062790291  |grad|_K:  1.631e-06  alpha:  5.500e-01  linmin:  2.264e-04  t[s]:  15048.33
	Linear fluid (dielectric constant: 78.4, screening length: 8.12261 Bohr) occupying 0.713337 of unit cell:	Completed after 14 iterations at t[s]:  15107.12
	Linear fluid (dielectric constant: 78.4, screening length: 8.12261 Bohr) occupying 0.713290 of unit cell:	Completed after 11 iterations at t[s]:  15156.44
	FillingsUpdate:  mu: -0.127200000  nElectrons: 223.877910  magneticMoment: [ Abs: 1.39801  Tot: -0.96640 ]
	SubspaceRotationAdjust: set factor to 0.145
ElecMinimize: Iter:   4  G: -358.971194970597935  |grad|_K:  1.726e-06  alpha:  3.578e-01  linmin:  2.090e-05  t[s]:  15213.84
	Linear fluid (dielectric constant: 78.4, screening length: 8.12261 Bohr) occupying 0.713379 of unit cell:	Completed after 8 iterations at t[s]:  15268.29
	Linear fluid (dielectric constant: 78.4, screening length: 8.12261 Bohr) occupying 0.713398 of unit cell:	Completed after 3 iterations at t[s]:  15312.00
	FillingsUpdate:  mu: -0.127200000  nElectrons: 223.863404  magneticMoment: [ Abs: 1.39077  Tot: -0.92574 ]
	SubspaceRotationAdjust: set factor to 0.145
ElecMinimize: Iter:   5  G: -358.971464465362601  |grad|_K:  9.946e-07  alpha:  4.383e-01  linmin:  3.746e-04  t[s]:  15368.97
	Linear fluid (dielectric constant: 78.4, screening length: 8.12261 Bohr) occupying 0.713431 of unit cell:	Completed after 4 iterations at t[s]:  15420.33
	Linear fluid (dielectric constant: 78.4, screening length: 8.12261 Bohr) occupying 0.713469 of unit cell:	Completed after 7 iterations at t[s]:  15466.85
	FillingsUpdate:  mu: -0.127200000  nElectrons: 223.857653  magneticMoment: [ Abs: 1.37695  Tot: -0.86094 ]
	SubspaceRotationAdjust: set factor to 0.18
ElecMinimize: Iter:   6  G: -358.971664665165122  |grad|_K:  8.455e-07  alpha:  9.943e-01  linmin: -1.673e-04  t[s]:  15523.74
	Linear fluid (dielectric constant: 78.4, screening length: 8.12261 Bohr) occupying 0.713496 of unit cell:	Completed after 9 iterations at t[s]:  15578.83
	Linear fluid (dielectric constant: 78.4, screening length: 8.12261 Bohr) occupying 0.713489 of unit cell:	Completed after 4 iterations at t[s]:  15623.41
	FillingsUpdate:  mu: -0.127200000  nElectrons: 223.856454  magneticMoment: [ Abs: 1.36838  Tot: -0.81413 ]
	SubspaceRotationAdjust: set factor to 0.215
ElecMinimize: Iter:   7  G: -358.971772656580697  |grad|_K:  7.521e-07  alpha:  7.020e-01  linmin: -1.981e-05  t[s]:  15680.22
	Linear fluid (dielectric constant: 78.4, screening length: 8.12261 Bohr) occupying 0.713487 of unit cell:	Completed after 4 iterations at t[s]:  15731.85
	Linear fluid (dielectric constant: 78.4, screening length: 8.12261 Bohr) occupying 0.713487 of unit cell:	Completed after 2 iterations at t[s]:  15774.70
	FillingsUpdate:  mu: -0.127200000  nElectrons: 223.858772  magneticMoment: [ Abs: 1.36040  Tot: -0.76042 ]
	SubspaceRotationAdjust: set factor to 0.255
ElecMinimize: Iter:   8  G: -358.971870276259096  |grad|_K:  6.750e-07  alpha:  8.200e-01  linmin:  5.975e-05  t[s]:  15831.71
	Linear fluid (dielectric constant: 78.4, screening length: 8.12261 Bohr) occupying 0.713467 of unit cell:	Completed after 4 iterations at t[s]:  15883.23
	Linear fluid (dielectric constant: 78.4, screening length: 8.12261 Bohr) occupying 0.713468 of unit cell:	Completed after 2 iterations at t[s]:  15926.62
	FillingsUpdate:  mu: -0.127200000  nElectrons: 223.862589  magneticMoment: [ Abs: 1.34928  Tot: -0.71260 ]
	SubspaceRotationAdjust: set factor to 0.294
ElecMinimize: Iter:   9  G: -358.971941714059085  |grad|_K:  5.586e-07  alpha:  7.603e-01  linmin: -3.483e-04  t[s]:  15983.44
	Linear fluid (dielectric constant: 78.4, screening length: 8.12261 Bohr) occupying 0.713446 of unit cell:	Completed after 8 iterations at t[s]:  16037.76
	Linear fluid (dielectric constant: 78.4, screening length: 8.12261 Bohr) occupying 0.713452 of unit cell:	Completed after 3 iterations at t[s]:  16081.66
	FillingsUpdate:  mu: -0.127200000  nElectrons: 223.868414  magneticMoment: [ Abs: 1.34399  Tot: -0.68707 ]
	SubspaceRotationAdjust: set factor to 0.239
ElecMinimize: Iter:  10  G: -358.971980161035447  |grad|_K:  4.934e-07  alpha:  5.477e-01  linmin:  1.195e-04  t[s]:  16138.66
	Linear fluid (dielectric constant: 78.4, screening length: 8.12261 Bohr) occupying 0.713435 of unit cell:	Completed after 8 iterations at t[s]:  16192.86
	Linear fluid (dielectric constant: 78.4, screening length: 8.12261 Bohr) occupying 0.713436 of unit cell:	Completed after 0 iterations at t[s]:  16233.72
	FillingsUpdate:  mu: -0.127200000  nElectrons: 223.859134  magneticMoment: [ Abs: 1.32611  Tot: -0.67224 ]
	SubspaceRotationAdjust: set factor to 0.226
ElecMinimize: Iter:  11  G: -358.972006582863230  |grad|_K:  3.659e-07  alpha:  5.256e-01  linmin: -5.618e-04  t[s]:  16290.67
	Linear fluid (dielectric constant: 78.4, screening length: 8.12261 Bohr) occupying 0.713436 of unit cell:	Completed after 3 iterations at t[s]:  16341.14
	Linear fluid (dielectric constant: 78.4, screening length: 8.12261 Bohr) occupying 0.713436 of unit cell:	Completed after 0 iterations at t[s]:  16382.30
	FillingsUpdate:  mu: -0.127200000  nElectrons: 223.861394  magneticMoment: [ Abs: 1.31700  Tot: -0.66056 ]
	SubspaceRotationAdjust: set factor to 0.266
ElecMinimize: Iter:  12  G: -358.972022394633768  |grad|_K:  2.554e-07  alpha:  5.210e-01  linmin:  2.348e-05  t[s]:  16439.48
	Linear fluid (dielectric constant: 78.4, screening length: 8.12261 Bohr) occupying 0.713446 of unit cell:	Completed after 3 iterations at t[s]:  16490.48
	Linear fluid (dielectric constant: 78.4, screening length: 8.12261 Bohr) occupying 0.713450 of unit cell:	Completed after 3 iterations at t[s]:  16534.53
	FillingsUpdate:  mu: -0.127200000  nElectrons: 223.865679  magneticMoment: [ Abs: 1.30668  Tot: -0.64967 ]
	SubspaceRotationAdjust: set factor to 0.316
ElecMinimize: Iter:  13  G: -358.972032716657509  |grad|_K:  1.873e-07  alpha:  7.593e-01  linmin:  2.784e-05  t[s]:  16591.53
	Linear fluid (dielectric constant: 78.4, screening length: 8.12261 Bohr) occupying 0.713459 of unit cell:	Completed after 4 iterations at t[s]:  16642.90
	Linear fluid (dielectric constant: 78.4, screening length: 8.12261 Bohr) occupying 0.713458 of unit cell:	Completed after 0 iterations at t[s]:  16683.93
	FillingsUpdate:  mu: -0.127200000  nElectrons: 223.861261  magneticMoment: [ Abs: 1.29429  Tot: -0.64844 ]
	SubspaceRotationAdjust: set factor to 0.273
ElecMinimize: Iter:  14  G: -358.972037976189824  |grad|_K:  1.599e-07  alpha:  7.180e-01  linmin:  8.721e-06  t[s]:  16741.02
	Linear fluid (dielectric constant: 78.4, screening length: 8.12261 Bohr) occupying 0.713464 of unit cell:	Completed after 3 iterations at t[s]:  16791.54
	Linear fluid (dielectric constant: 78.4, screening length: 8.12261 Bohr) occupying 0.713461 of unit cell:	Completed after 3 iterations at t[s]:  16835.11
	FillingsUpdate:  mu: -0.127200000  nElectrons: 223.861816  magneticMoment: [ Abs: 1.29012  Tot: -0.64684 ]
	SubspaceRotationAdjust: set factor to 0.241
ElecMinimize: Iter:  15  G: -358.972039958534367  |grad|_K:  1.095e-07  alpha:  3.817e-01  linmin: -3.617e-06  t[s]:  16891.93
	Linear fluid (dielectric constant: 78.4, screening length: 8.12261 Bohr) occupying 0.713462 of unit cell:	Completed after 1 iterations at t[s]:  16941.10
	Linear fluid (dielectric constant: 78.4, screening length: 8.12261 Bohr) occupying 0.713462 of unit cell:	Completed after 2 iterations at t[s]:  16983.84
	FillingsUpdate:  mu: -0.127200000  nElectrons: 223.862045  magneticMoment: [ Abs: 1.28409  Tot: -0.64577 ]
	SubspaceRotationAdjust: set factor to 0.296
ElecMinimize: Iter:  16  G: -358.972041544788624  |grad|_K:  6.715e-08  alpha:  6.315e-01  linmin: -3.678e-05  t[s]:  17041.29
	Linear fluid (dielectric constant: 78.4, screening length: 8.12261 Bohr) occupying 0.713460 of unit cell:	Completed after 0 iterations at t[s]:  17089.21
	Linear fluid (dielectric constant: 78.4, screening length: 8.12261 Bohr) occupying 0.713460 of unit cell:	Completed after 1 iterations at t[s]:  17131.00
	FillingsUpdate:  mu: -0.127200000  nElectrons: 223.862069  magneticMoment: [ Abs: 1.28015  Tot: -0.64571 ]
	SubspaceRotationAdjust: set factor to 0.34
ElecMinimize: Iter:  17  G: -358.972042161045181  |grad|_K:  5.187e-08  alpha:  6.878e-01  linmin:  2.856e-04  t[s]:  17188.11
	Linear fluid (dielectric constant: 78.4, screening length: 8.12261 Bohr) occupying 0.713458 of unit cell:	Completed after 1 iterations at t[s]:  17237.21
	Linear fluid (dielectric constant: 78.4, screening length: 8.12261 Bohr) occupying 0.713458 of unit cell:	Completed after 0 iterations at t[s]:  17277.83
	FillingsUpdate:  mu: -0.127200000  nElectrons: 223.861980  magneticMoment: [ Abs: 1.27682  Tot: -0.64611 ]
	SubspaceRotationAdjust: set factor to 0.407
ElecMinimize: Iter:  18  G: -358.972042503637624  |grad|_K:  3.616e-08  alpha:  6.407e-01  linmin: -1.956e-04  t[s]:  17334.67
	Linear fluid (dielectric constant: 78.4, screening length: 8.12261 Bohr) occupying 0.713457 of unit cell:	Completed after 0 iterations at t[s]:  17383.22
	Linear fluid (dielectric constant: 78.4, screening length: 8.12261 Bohr) occupying 0.713457 of unit cell:	Completed after 0 iterations at t[s]:  17423.96
	FillingsUpdate:  mu: -0.127200000  nElectrons: 223.861990  magneticMoment: [ Abs: 1.27428  Tot: -0.64656 ]
	SubspaceRotationAdjust: set factor to 0.502
ElecMinimize: Iter:  19  G: -358.972042681928258  |grad|_K:  2.760e-08  alpha:  6.324e-01  linmin: -3.785e-04  t[s]:  17481.29
	Linear fluid (dielectric constant: 78.4, screening length: 8.12261 Bohr) occupying 0.713456 of unit cell:	Completed after 1 iterations at t[s]:  17530.99
	Linear fluid (dielectric constant: 78.4, screening length: 8.12261 Bohr) occupying 0.713456 of unit cell:	Completed after 0 iterations at t[s]:  17571.55
	FillingsUpdate:  mu: -0.127200000  nElectrons: 223.861986  magneticMoment: [ Abs: 1.27265  Tot: -0.64691 ]
	SubspaceRotationAdjust: set factor to 0.471
ElecMinimize: Iter:  20  G: -358.972042746546038  |grad|_K:  3.155e-08  alpha:  4.450e-01  linmin: -3.406e-04  t[s]:  17629.15
	Linear fluid (dielectric constant: 78.4, screening length: 8.12261 Bohr) occupying 0.713455 of unit cell:	Completed after 3 iterations at t[s]:  17680.11
	Linear fluid (dielectric constant: 78.4, screening length: 8.12261 Bohr) occupying 0.713456 of unit cell:	Completed after 0 iterations at t[s]:  17721.58
	FillingsUpdate:  mu: -0.127200000  nElectrons: 223.862417  magneticMoment: [ Abs: 1.27188  Tot: -0.64690 ]
	SubspaceRotationAdjust: set factor to 0.308
ElecMinimize: Iter:  21  G: -358.972042805438775  |grad|_K:  3.355e-08  alpha:  1.894e-01  linmin:  1.597e-03  t[s]:  17778.97
ElecMinimize: Converged (|Delta G|<1.000000e-07 for 2 iters).
Setting wave functions to eigenvectors of Hamiltonian
Converging empty states (this may take a while): |deigs|: 4.756e-04
Single-point solvation energy estimate, DeltaG = +0.001302589094450

Computing DFT-D3 correction:
# coordination-number C 3.299 3.321 3.335 3.331 3.312 3.290 3.312 3.497 3.328 3.312 3.302 3.336 3.299 3.299 3.321 3.766 3.268 3.301 3.319 3.333 3.326 3.303 3.299 3.328 3.335 3.319 3.299 3.268 3.497 3.321 3.301 3.303 3.312 3.299 3.312 3.326 3.766 3.336 3.290 3.312 3.331 3.333 3.321 3.302 2.020
# coordination-number N 3.165 3.184 3.165 3.184
# coordination-number Ti 5.714
# coordination-number O 1.051 1.014
# diagonal-C6 C 24.29 24.07 23.92 23.96 24.17 24.37 24.16 21.69 23.99 24.16 24.27 23.91 24.29 24.29 24.07 18.91 24.57 24.27 24.09 23.94 24.02 24.25 24.29 23.99 23.92 24.09 24.29 24.57 21.68 24.07 24.27 24.25 24.16 24.29 24.17 24.02 18.90 23.91 24.37 24.16 23.96 23.94 24.07 24.27 29.45
# diagonal-C6 N 15.60 15.60 15.60 15.60
# diagonal-C6 Ti 321.59
# diagonal-C6 O 12.77 12.80
EvdW_6 =   -0.038232
EvdW_8 =   -0.030621

# Ionic positions in cartesian coordinates:
ion C   0.105113000000000   0.057993000000000   0.012196000000000 1
ion C  -2.294063000000001   3.989850000000001   0.036830000000000 1
ion C  -4.636188000000000   7.989755000000001  43.186352000000007 1
ion C  -6.944679000000000  12.009537000000002  43.167876000000007 1
ion C  -9.274525000000002  16.018981000000004  43.216025000000009 1
ion C   4.781572000000000   0.144015000000000   0.038578000000000 1
ion C   2.393441999999999   4.183655000000001   0.236791000000000 1
ion C  -0.024840000000000   7.992407000000001   0.234792000000000 1
ion C  -2.326015000000000  11.989917000000002   0.037505000000000 1
ion C  -4.617597000000001  16.017151000000002  43.246116000000008 1
ion C   9.475648000000001   0.030732000000000  43.249838000000004 1
ion C   7.180874000000001   4.120810000000001   0.063802000000000 1
ion C   0.083701000000000  15.909778000000001   0.097197000000000 1
ion C   2.441086000000000  19.890821000000003   0.015479000000000 1
ion C  11.856209000000000   3.993558000000001  43.218748000000005 1
ion C   9.563008999999999   7.991099000000001   0.041229000000000 1
ion C   4.769634000000000  15.799205000000002   0.142738000000000 1
ion C   7.096677999999997  19.901965000000001   0.004459000000000 1
ion C  16.497684000000000   3.981607000000001  43.204318000000008 1
ion C  14.187965000000002   8.001747000000000  43.175779000000006 1
ion C  11.876976000000003  12.008080000000003  43.228523000000010 1
ion C   9.472270999999999  15.955571000000004  43.234984000000004 1
ion C   0.094036000000000   2.746030000000000   0.084197000000000 1
ion C  -2.321693000000000   6.661924000000000   0.030816000000000 1
ion C  -4.638280000000000  10.658497000000002  43.188795000000006 1
ion C  -6.946729999999999  14.681130000000001  43.205009000000004 1
ion C  -9.276069000000001  18.710373000000004   0.005708000000000 1
ion C   4.779582000000000   2.863809000000000   0.132413000000000 1
ion C  -0.027267000000001  10.662764000000001   0.238935000000000 1
ion C  -2.302404000000002  14.662066000000001   0.046594000000000 1
ion C  -4.620522000000000  18.706286000000002   0.003996000000000 1
ion C   9.482347000000003   2.714718000000000  43.235236000000008 1
ion C   2.385288000000001  14.475836000000001   0.248770000000000 1
ion C   0.090738999999999  18.597775000000002   0.023208000000000 1
ion C  14.171937000000002   2.640241000000001  43.220245000000006 1
ion C  11.880902000000003   6.665686000000001  43.227937000000004 1
ion C   9.561213000000000  10.679273000000002   0.042182000000000 1
ion C   7.173064000000002  14.546341000000002   0.068630000000000 1
ion C   4.767401000000001  18.518912000000004   0.047375000000000 1
ion C  18.828890000000001   2.649165000000000  43.242179000000007 1
ion C  16.495671000000002   6.653171000000002  43.165867000000006 1
ion C  14.185988000000000  10.675409000000004  43.176252000000005 1
ion C  11.848077999999999  14.680171000000005  43.217095000000008 1
ion C   9.461399999999999  18.639464000000004  43.245744000000009 1
ion C   3.373461000000000   9.313198000000002   8.093780000000002 1
ion N   2.273497000000002  11.863315000000000   0.514381000000000 1
ion N   7.271606000000000  11.945106000000001   0.167921000000000 1
ion N   2.278078000000000   6.795471000000001   0.506843000000000 1
ion N   7.274915000000000   6.722376000000001   0.165035000000000 1
ion Ti   5.049669000000002   9.332603000000002   1.671893000000000 1
ion O   5.515347000000001   9.308922000000003   7.484367000000001 1
ion O   1.230949000000000   9.317025000000001   8.609791000000001 1

# Forces in Cartesian coordinates:
force C   0.000060273311328   0.000037820403754   0.000068388415192 1
force C   0.000019950522259   0.000033297913095   0.000185790544036 1
force C   0.000050275568474   0.000014675417160  -0.000056443371355 1
force C   0.000032410633836   0.000012517642483  -0.000009475594559 1
force C   0.000007404954208  -0.000021552177472  -0.000014682146286 1
force C   0.000021617189922  -0.000039941276824  -0.000004751845745 1
force C   0.000065677404201   0.000067032828340   0.000546672186851 1
force C   0.000048316604337   0.000096229041190   0.000638765686168 1
force C   0.000043039129255  -0.000005170668357   0.000132209686114 1
force C   0.000063484033781  -0.000033754900037  -0.000026246664083 1
force C   0.000026355110827  -0.000034948946864  -0.000080265914987 1
force C  -0.000009654037160  -0.000035227361814  -0.000200804326575 1
force C   0.000080837404697  -0.000047877534596   0.000221766921564 1
force C   0.000028010495860   0.000014322164328  -0.000048024146228 1
force C   0.000053051019850   0.000016603341801  -0.000002866382306 1
force C  -0.000022417002163   0.000082566260061   0.000053374964540 1
force C   0.000018957709127   0.000012615674332   0.000003326157005 1
force C   0.000040108635667   0.000035859759722  -0.000089785833919 1
force C   0.000027788407393   0.000032881081297  -0.000026112396667 1
force C   0.000024503152333  -0.000002841780851   0.000217983793042 1
force C   0.000055023862820   0.000034137694104   0.000203803355225 1
force C  -0.000010184626426   0.000021926542256  -0.000161128424455 1
force C   0.000084465444719   0.000060718831279   0.000303885711603 1
force C   0.000046428616165   0.000018144054693   0.000176268757995 1
force C   0.000049391757694  -0.000003911628566  -0.000075671419873 1
force C   0.000026645148752  -0.000021204687634  -0.000032564024946 1
force C   0.000029902986451  -0.000003132186293   0.000023473372594 1
force C   0.000020750530581  -0.000001724633990   0.000092538117702 1
force C   0.000048417495107  -0.000078311771455   0.000615194885721 1
force C   0.000016735766685  -0.000020288269719   0.000127743181697 1
force C   0.000037976593775  -0.000022545275450  -0.000066677750222 1
force C  -0.000010797738276  -0.000010240891305  -0.000137947194686 1
force C   0.000063353382346  -0.000053293710264   0.000466217255017 1
force C   0.000057479398944  -0.000025484582002   0.000001121978466 1
force C   0.000007050604070   0.000033242989556  -0.000039465639473 1
force C   0.000053542603144  -0.000022508146594   0.000221828070857 1
force C  -0.000021385757588  -0.000068811978854   0.000041905293720 1
force C  -0.000012255979823   0.000045358130438  -0.000254410561645 1
force C   0.000021186022656   0.000052691946815  -0.000084476924775 1
force C   0.000066657242959   0.000046175140507  -0.000009510537978 1
force C   0.000032566747054  -0.000003448342407   0.000011911669980 1
force C   0.000024643190381   0.000011841730568   0.000207350492160 1
force C   0.000053184955030  -0.000005598572042  -0.000010062777221 1
force C   0.000029006094074   0.000047699653654  -0.000073630863690 1
force C  -0.000335903971249  -0.000055701891077  -0.001891986886742 1
force N   0.000020969237541  -0.000116660412633   0.001068671366063 1
force N   0.000042927815033   0.000015715048629  -0.000188404368068 1
force N   0.000021508788177   0.000133634120109   0.001107331760630 1
force N   0.000046550407545  -0.000006506702641  -0.000161882094826 1
force Ti   0.000790951347522   0.000003498675635   0.000359077435836 1
force O  -0.002479129759167  -0.000079370432759  -0.006145249674154 1
force O  -0.000508245332851  -0.000022031525866   0.002738112577054 1

# Energy components:
   A_diel =        0.0051372522290807
   Eewald =     1590.1120263202101341
       EH =     1901.5350200695681906
     Eloc =    -4023.4763575109918747
      Enl =       52.6706305675384243
     EvdW =       -0.0688530730523168
      Exc =     -108.7867644918019892
 Exc_core =        3.3095247877760201
       KE =      197.2514207664181072
  MuShift =        0.0015118677027708
-------------------------------------
     Etot =     -387.4467034444034539
       TS =        0.0006387705593564
-------------------------------------
        F =     -387.4473422149628163
      muN =      -28.4752994095240659
-------------------------------------
        G =     -358.9720428054387753


Dumping 'jdft.fillings' ... done
Dumping 'jdft.wfns' ... done
Dumping 'jdft.fluidState' ... done
Dumping 'jdft.ionpos' ... done
Dumping 'jdft.lattice' ... done
Dumping 'jdft.eigenvals' ... done
Dumping 'jdft.eigStats' ... 
	eMin: -2.268994 at state 9 ( [ +0.000000 +0.000000 +0.000000 ] spin -1 )
	HOMO: -0.127208 at state 5 ( [ +0.333333 -0.333333 +0.000000 ] spin 1 )
	mu  : -0.127200
	LUMO: -0.126786 at state 2 ( [ +0.000000 -0.333333 +0.000000 ] spin 1 )
	eMax: +0.019707 at state 0 ( [ +0.000000 +0.000000 +0.000000 ] spin 1 )
	HOMO-LUMO gap: +0.000422
	Optical gap  : +0.013674 at state 0 ( [ +0.000000 +0.000000 +0.000000 ] spin 1 )
Dumping 'jdft.Ecomponents' ... done
IonicMinimize: Iter:   0  G: -358.972042805438775  |grad|_K:  6.236e-04  t[s]:  18635.77
IonicMinimize: None of the convergence criteria satisfied after 0 iterations.

#--- Lowdin population analysis ---
# oxidation-state C +0.037 +0.041 +0.035 +0.043 +0.033 +0.038 +0.153 +0.130 +0.026 +0.032 +0.037 +0.158 +0.020 +0.035 +0.041 +0.104 -0.001 +0.037 +0.033 +0.038 +0.029 +0.018 +0.020 +0.026 +0.035 +0.033 +0.035 -0.001 +0.130 +0.041 +0.037 +0.018 +0.153 +0.037 +0.033 +0.029 +0.104 +0.158 +0.038 +0.032 +0.043 +0.038 +0.041 +0.037 +0.806
# magnetic-moments C +0.001 -0.000 +0.002 +0.001 +0.001 +0.001 -0.017 +0.002 -0.000 +0.003 -0.003 -0.011 +0.012 +0.005 +0.008 +0.008 +0.010 +0.006 +0.004 +0.004 -0.003 +0.008 +0.012 -0.000 +0.002 +0.004 +0.005 +0.010 +0.002 -0.000 +0.006 +0.008 -0.017 +0.001 +0.001 -0.003 +0.008 -0.011 +0.001 +0.003 +0.001 +0.004 +0.008 -0.003 -0.003
# oxidation-state N -0.329 -0.319 -0.329 -0.319
# magnetic-moments N +0.039 +0.035 +0.039 +0.035
# oxidation-state Ti +1.367
# magnetic-moments Ti -0.849
# oxidation-state O -0.300 -0.242
# magnetic-moments O -0.000 -0.001


Dumping 'jdft.n_up' ... done
Dumping 'jdft.n_dn' ... done
Dumping 'jdft.tau_up' ... done
Dumping 'jdft.tau_dn' ... done
Dumping 'jdft.eigenvals' ... done
Dumping 'jdft.eigStats' ... 
	eMin: -2.268994 at state 9 ( [ +0.000000 +0.000000 +0.000000 ] spin -1 )
	HOMO: -0.127208 at state 5 ( [ +0.333333 -0.333333 +0.000000 ] spin 1 )
	mu  : -0.127200
	LUMO: -0.126786 at state 2 ( [ +0.000000 -0.333333 +0.000000 ] spin 1 )
	eMax: +0.019707 at state 0 ( [ +0.000000 +0.000000 +0.000000 ] spin 1 )
	HOMO-LUMO gap: +0.000422
	Optical gap  : +0.013674 at state 0 ( [ +0.000000 +0.000000 +0.000000 ] spin 1 )
Dumping 'jdft.kPts' ... done
Dumping 'jdft.dosUp' ... done.
Dumping 'jdft.dosDn' ... done.
End date and time: Tue Mar 14 18:46:39 2023  (Duration: 0-5:12:04.82)
Done!

PROFILER:             augmentDensityGrid     0.991550 +/-     1.097902 s,  908 calls,    900.327814 s total
PROFILER:         augmentDensityGridGrad     0.639198 +/-     0.640322 s,  468 calls,    299.144805 s total
PROFILER:        augmentDensitySpherical     0.000687 +/-     0.000895 s,  908 calls,      0.623613 s total
PROFILER:    augmentDensitySphericalGrad     0.000678 +/-     0.000934 s,  648 calls,      0.439426 s total
PROFILER:                 augmentOverlap     2.024894 +/-     2.724861 s, 1636 calls,   3312.726402 s total
PROFILER:        ColumnBundle::randomize     0.006328 +/-     0.000000 s,    1 calls,      0.006328 s total
PROFILER:                     diagouterI    21.533615 +/-     5.701575 s,  230 calls,   4952.731563 s total
PROFILER:              EdensityAndVscloc     3.400130 +/-     4.954859 s,  228 calls,    775.229583 s total
PROFILER:                     EnlAndGrad     0.001949 +/-     0.002916 s,  828 calls,      1.614115 s total
PROFILER:            ExCorrCommunication     0.089970 +/-     0.103900 s, 1381 calls,    124.247929 s total
PROFILER:               ExCorrFunctional     0.030246 +/-     0.004496 s,  232 calls,      7.017075 s total
PROFILER:                    ExCorrTotal     0.895618 +/-     0.181701 s,  232 calls,    207.783387 s total
PROFILER:                   Idag_DiagV_I    32.652801 +/-    18.934345 s,  161 calls,   5257.100978 s total
PROFILER:                    initWeights     2.495721 +/-     0.000000 s,    1 calls,      2.495721 s total
PROFILER:                    inv(matrix)     0.002457 +/-     0.000235 s,  157 calls,      0.385777 s total
PROFILER:            matrix::diagonalize     0.013479 +/-     0.007770 s,  378 calls,      5.095194 s total
PROFILER:                    matrix::set     0.000003 +/-     0.000003 s, 19606 calls,      0.052487 s total
PROFILER:            orthoMatrix(matrix)     0.002143 +/-     0.000639 s,  202 calls,      0.432952 s total
PROFILER:     RadialFunctionR::transform     0.024112 +/-     0.171213 s,  141 calls,      3.399839 s total
PROFILER:                    reduceKmesh     0.000000 +/-     0.000000 s,    1 calls,      0.000000 s total
PROFILER:   VanDerWaalsD3::energyAndGrad     0.038658 +/-     0.003043 s,    3 calls,      0.115974 s total
PROFILER:               WavefunctionDrag    17.176240 +/-     0.000000 s,    1 calls,     17.176240 s total
PROFILER:                            Y*M     0.916734 +/-     1.111249 s, 3158 calls,   2895.044630 s total
PROFILER:                          Y1^Y2     0.895413 +/-     1.102707 s, 2185 calls,   1956.477070 s total

MEMUSAGE:                   ColumnBundle     1.333771 GB
MEMUSAGE:        complexScalarFieldTilde     0.074158 GB
MEMUSAGE:                    IndexArrays     0.023178 GB
MEMUSAGE:                         matrix     0.020674 GB
MEMUSAGE:                           misc     0.050872 GB
MEMUSAGE:                    ScalarField     0.358429 GB
MEMUSAGE:               ScalarFieldTilde     0.262436 GB
MEMUSAGE:                          Total     1.613345 GB
