
*************** JDFTx 1.7.0 (git hash 5f12716a) ***************

Start date and time: Tue Mar 14 13:34:30 2023
Executable /home/nisi6161/jdftx_alpine/build/jdftx with command-line: -i in
Running on hosts (process indices):  c3cpu-c11-u34-2.rc.int.colorado.edu (0-17)
Divided in process groups (process indices):  0 (0)  1 (1)  2 (2)  3 (3)  4 (4)  5 (5)  6 (6)  7 (7)  8 (8)  9 (9)  10 (10)  11 (11)  12 (12)  13 (13)  14 (14)  15 (15)  16 (16)  17 (17)
Resource initialization completed at t[s]:      0.01
Run totals: 18 processes, 32 threads, 0 GPUs


Input parsed successfully to the following command list (including defaults):

basis kpoint-dependent
converge-empty-states yes
coords-type Cartesian
core-overlap-check none
coulomb-interaction Periodic
davidson-band-ratio 1.1
density-of-states Etol 1.000000e-06 Esigma 1.000000e-03 \
		Complete \
	Total \
	OrthoOrbital C 1   s \
	OrthoOrbital C 1   p \
	OrthoOrbital C 1   px \
	OrthoOrbital C 1   py \
	OrthoOrbital C 1   pz \
	OrthoOrbital C 2   s \
	OrthoOrbital C 2   p \
	OrthoOrbital C 2   px \
	OrthoOrbital C 2   py \
	OrthoOrbital C 2   pz \
	OrthoOrbital C 3   s \
	OrthoOrbital C 3   p \
	OrthoOrbital C 3   px \
	OrthoOrbital C 3   py \
	OrthoOrbital C 3   pz \
	OrthoOrbital C 4   s \
	OrthoOrbital C 4   p \
	OrthoOrbital C 4   px \
	OrthoOrbital C 4   py \
	OrthoOrbital C 4   pz \
	OrthoOrbital C 5   s \
	OrthoOrbital C 5   p \
	OrthoOrbital C 5   px \
	OrthoOrbital C 5   py \
	OrthoOrbital C 5   pz \
	OrthoOrbital C 6   s \
	OrthoOrbital C 6   p \
	OrthoOrbital C 6   px \
	OrthoOrbital C 6   py \
	OrthoOrbital C 6   pz \
	OrthoOrbital C 7   s \
	OrthoOrbital C 7   p \
	OrthoOrbital C 7   px \
	OrthoOrbital C 7   py \
	OrthoOrbital C 7   pz \
	OrthoOrbital C 8   s \
	OrthoOrbital C 8   p \
	OrthoOrbital C 8   px \
	OrthoOrbital C 8   py \
	OrthoOrbital C 8   pz \
	OrthoOrbital C 9   s \
	OrthoOrbital C 9   p \
	OrthoOrbital C 9   px \
	OrthoOrbital C 9   py \
	OrthoOrbital C 9   pz \
	OrthoOrbital C 10   s \
	OrthoOrbital C 10   p \
	OrthoOrbital C 10   px \
	OrthoOrbital C 10   py \
	OrthoOrbital C 10   pz \
	OrthoOrbital C 11   s \
	OrthoOrbital C 11   p \
	OrthoOrbital C 11   px \
	OrthoOrbital C 11   py \
	OrthoOrbital C 11   pz \
	OrthoOrbital C 12   s \
	OrthoOrbital C 12   p \
	OrthoOrbital C 12   px \
	OrthoOrbital C 12   py \
	OrthoOrbital C 12   pz \
	OrthoOrbital C 13   s \
	OrthoOrbital C 13   p \
	OrthoOrbital C 13   px \
	OrthoOrbital C 13   py \
	OrthoOrbital C 13   pz \
	OrthoOrbital C 14   s \
	OrthoOrbital C 14   p \
	OrthoOrbital C 14   px \
	OrthoOrbital C 14   py \
	OrthoOrbital C 14   pz \
	OrthoOrbital C 15   s \
	OrthoOrbital C 15   p \
	OrthoOrbital C 15   px \
	OrthoOrbital C 15   py \
	OrthoOrbital C 15   pz \
	OrthoOrbital C 16   s \
	OrthoOrbital C 16   p \
	OrthoOrbital C 16   px \
	OrthoOrbital C 16   py \
	OrthoOrbital C 16   pz \
	OrthoOrbital C 17   s \
	OrthoOrbital C 17   p \
	OrthoOrbital C 17   px \
	OrthoOrbital C 17   py \
	OrthoOrbital C 17   pz \
	OrthoOrbital C 18   s \
	OrthoOrbital C 18   p \
	OrthoOrbital C 18   px \
	OrthoOrbital C 18   py \
	OrthoOrbital C 18   pz \
	OrthoOrbital C 19   s \
	OrthoOrbital C 19   p \
	OrthoOrbital C 19   px \
	OrthoOrbital C 19   py \
	OrthoOrbital C 19   pz \
	OrthoOrbital C 20   s \
	OrthoOrbital C 20   p \
	OrthoOrbital C 20   px \
	OrthoOrbital C 20   py \
	OrthoOrbital C 20   pz \
	OrthoOrbital C 21   s \
	OrthoOrbital C 21   p \
	OrthoOrbital C 21   px \
	OrthoOrbital C 21   py \
	OrthoOrbital C 21   pz \
	OrthoOrbital C 22   s \
	OrthoOrbital C 22   p \
	OrthoOrbital C 22   px \
	OrthoOrbital C 22   py \
	OrthoOrbital C 22   pz \
	OrthoOrbital C 23   s \
	OrthoOrbital C 23   p \
	OrthoOrbital C 23   px \
	OrthoOrbital C 23   py \
	OrthoOrbital C 23   pz \
	OrthoOrbital C 24   s \
	OrthoOrbital C 24   p \
	OrthoOrbital C 24   px \
	OrthoOrbital C 24   py \
	OrthoOrbital C 24   pz \
	OrthoOrbital C 25   s \
	OrthoOrbital C 25   p \
	OrthoOrbital C 25   px \
	OrthoOrbital C 25   py \
	OrthoOrbital C 25   pz \
	OrthoOrbital C 26   s \
	OrthoOrbital C 26   p \
	OrthoOrbital C 26   px \
	OrthoOrbital C 26   py \
	OrthoOrbital C 26   pz \
	OrthoOrbital C 27   s \
	OrthoOrbital C 27   p \
	OrthoOrbital C 27   px \
	OrthoOrbital C 27   py \
	OrthoOrbital C 27   pz \
	OrthoOrbital C 28   s \
	OrthoOrbital C 28   p \
	OrthoOrbital C 28   px \
	OrthoOrbital C 28   py \
	OrthoOrbital C 28   pz \
	OrthoOrbital C 29   s \
	OrthoOrbital C 29   p \
	OrthoOrbital C 29   px \
	OrthoOrbital C 29   py \
	OrthoOrbital C 29   pz \
	OrthoOrbital C 30   s \
	OrthoOrbital C 30   p \
	OrthoOrbital C 30   px \
	OrthoOrbital C 30   py \
	OrthoOrbital C 30   pz \
	OrthoOrbital C 31   s \
	OrthoOrbital C 31   p \
	OrthoOrbital C 31   px \
	OrthoOrbital C 31   py \
	OrthoOrbital C 31   pz \
	OrthoOrbital C 32   s \
	OrthoOrbital C 32   p \
	OrthoOrbital C 32   px \
	OrthoOrbital C 32   py \
	OrthoOrbital C 32   pz \
	OrthoOrbital C 33   s \
	OrthoOrbital C 33   p \
	OrthoOrbital C 33   px \
	OrthoOrbital C 33   py \
	OrthoOrbital C 33   pz \
	OrthoOrbital C 34   s \
	OrthoOrbital C 34   p \
	OrthoOrbital C 34   px \
	OrthoOrbital C 34   py \
	OrthoOrbital C 34   pz \
	OrthoOrbital C 35   s \
	OrthoOrbital C 35   p \
	OrthoOrbital C 35   px \
	OrthoOrbital C 35   py \
	OrthoOrbital C 35   pz \
	OrthoOrbital C 36   s \
	OrthoOrbital C 36   p \
	OrthoOrbital C 36   px \
	OrthoOrbital C 36   py \
	OrthoOrbital C 36   pz \
	OrthoOrbital C 37   s \
	OrthoOrbital C 37   p \
	OrthoOrbital C 37   px \
	OrthoOrbital C 37   py \
	OrthoOrbital C 37   pz \
	OrthoOrbital C 38   s \
	OrthoOrbital C 38   p \
	OrthoOrbital C 38   px \
	OrthoOrbital C 38   py \
	OrthoOrbital C 38   pz \
	OrthoOrbital C 39   s \
	OrthoOrbital C 39   p \
	OrthoOrbital C 39   px \
	OrthoOrbital C 39   py \
	OrthoOrbital C 39   pz \
	OrthoOrbital C 40   s \
	OrthoOrbital C 40   p \
	OrthoOrbital C 40   px \
	OrthoOrbital C 40   py \
	OrthoOrbital C 40   pz \
	OrthoOrbital C 41   s \
	OrthoOrbital C 41   p \
	OrthoOrbital C 41   px \
	OrthoOrbital C 41   py \
	OrthoOrbital C 41   pz \
	OrthoOrbital C 42   s \
	OrthoOrbital C 42   p \
	OrthoOrbital C 42   px \
	OrthoOrbital C 42   py \
	OrthoOrbital C 42   pz \
	OrthoOrbital C 43   s \
	OrthoOrbital C 43   p \
	OrthoOrbital C 43   px \
	OrthoOrbital C 43   py \
	OrthoOrbital C 43   pz \
	OrthoOrbital C 44   s \
	OrthoOrbital C 44   p \
	OrthoOrbital C 44   px \
	OrthoOrbital C 44   py \
	OrthoOrbital C 44   pz \
	OrthoOrbital C 45   s \
	OrthoOrbital C 45   p \
	OrthoOrbital C 45   px \
	OrthoOrbital C 45   py \
	OrthoOrbital C 45   pz \
	OrthoOrbital N 1   s \
	OrthoOrbital N 1   p \
	OrthoOrbital N 1   px \
	OrthoOrbital N 1   py \
	OrthoOrbital N 1   pz \
	OrthoOrbital N 2   s \
	OrthoOrbital N 2   p \
	OrthoOrbital N 2   px \
	OrthoOrbital N 2   py \
	OrthoOrbital N 2   pz \
	OrthoOrbital N 3   s \
	OrthoOrbital N 3   p \
	OrthoOrbital N 3   px \
	OrthoOrbital N 3   py \
	OrthoOrbital N 3   pz \
	OrthoOrbital N 4   s \
	OrthoOrbital N 4   p \
	OrthoOrbital N 4   px \
	OrthoOrbital N 4   py \
	OrthoOrbital N 4   pz \
	OrthoOrbital Ti 1   s \
	OrthoOrbital Ti 1   p \
	OrthoOrbital Ti 1   px \
	OrthoOrbital Ti 1   py \
	OrthoOrbital Ti 1   pz \
	OrthoOrbital Ti 1   d \
	OrthoOrbital Ti 1   dxy \
	OrthoOrbital Ti 1   dyz \
	OrthoOrbital Ti 1   dz2 \
	OrthoOrbital Ti 1   dxz \
	OrthoOrbital Ti 1   dx2-y2 \
	OrthoOrbital O 1   s \
	OrthoOrbital O 1   p \
	OrthoOrbital O 1   px \
	OrthoOrbital O 1   py \
	OrthoOrbital O 1   pz \
	OrthoOrbital O 2   s \
	OrthoOrbital O 2   p \
	OrthoOrbital O 2   px \
	OrthoOrbital O 2   py \
	OrthoOrbital O 2   pz
dump End ElecDensity KEdensity BandEigs EigStats RhoAtom DOS Kpoints
dump Ionic State IonicPositions Lattice EigStats Ecomponents
dump 
dump 
dump 
dump 
dump 
dump 
dump 
dump 
dump-name jdft.$VAR
elec-cutoff 20
elec-eigen-algo Davidson
elec-ex-corr gga-PBE
elec-initial-magnetization 0.000000 no
elec-n-bands 135
elec-smearing Fermi 0.001
electronic-minimize  \
	dirUpdateScheme      FletcherReeves \
	linminMethod         DirUpdateRecommended \
	nIterations          100 \
	history              15 \
	knormThreshold       0 \
	energyDiffThreshold  1e-07 \
	nEnergyDiff          2 \
	alphaTstart          1 \
	alphaTmin            1e-10 \
	updateTestStepSize   yes \
	alphaTreduceFactor   0.1 \
	alphaTincreaseFactor 3 \
	nAlphaAdjustMax      3 \
	wolfeEnergy          0.0001 \
	wolfeGradient        0.9 \
	fdTest               no
exchange-regularization WignerSeitzTruncated
fluid LinearPCM 298.000000 1.013250
fluid-anion F- 0.5 MeanFieldLJ \
	epsBulk 1 \
	pMol 0 \
	epsInf 1 \
	Pvap 0 \
	sigmaBulk 0 \
	Rvdw 2.24877 \
	Res 0 \
	tauNuc 343133
fluid-cation Na+ 0.5 MeanFieldLJ \
	epsBulk 1 \
	pMol 0 \
	epsInf 1 \
	Pvap 0 \
	sigmaBulk 0 \
	Rvdw 2.19208 \
	Res 0 \
	tauNuc 343133
fluid-ex-corr lda-TF lda-PZ
fluid-gummel-loop 10 1.000000e-05
fluid-minimize  \
	dirUpdateScheme      PolakRibiere \
	linminMethod         DirUpdateRecommended \
	nIterations          400 \
	history              15 \
	knormThreshold       1e-11 \
	energyDiffThreshold  0 \
	nEnergyDiff          2 \
	alphaTstart          1 \
	alphaTmin            1e-10 \
	updateTestStepSize   yes \
	alphaTreduceFactor   0.1 \
	alphaTincreaseFactor 3 \
	nAlphaAdjustMax      6 \
	wolfeEnergy          0.0001 \
	wolfeGradient        0.9 \
	fdTest               no
fluid-solvent H2O 55.338 ScalarEOS \
	epsBulk 78.4 \
	pMol 0.92466 \
	epsInf 1.77 \
	Pvap 1.06736e-10 \
	sigmaBulk 4.62e-05 \
	Rvdw 2.61727 \
	Res 1.42 \
	tauNuc 343133 \
	poleEl 15 7 1
forces-output-coords Positions
ion C   0.102018000000000   0.054981000000000   0.013080000000000 1
ion C  -2.290880000000000   3.987420000000001   0.034667000000000 1
ion C  -4.635181000000000   7.989731000000001  43.194409000000007 1
ion C  -6.942704000000000  12.008148000000000  43.170262000000008 1
ion C  -9.270379999999999  16.023592000000001  43.216953000000004 1
ion C   4.782713000000000   0.150698000000000   0.040830000000000 1
ion C   2.394531000000000   4.184178000000001   0.223667000000000 1
ion C  -0.019252000000000   7.985263000000001   0.233902000000000 1
ion C  -2.324134000000001  11.991959000000003   0.043575000000000 1
ion C  -4.620559000000001  16.022836000000005  43.245156000000009 1
ion C   9.476884000000000   0.035462000000000  43.253278000000009 1
ion C   7.178662000000001   4.137810000000001   0.072855000000000 1
ion C   0.078265000000000  15.912576000000001   0.093024000000000 1
ion C   2.442899999999998  19.888303000000004   0.017416000000000 1
ion C  11.854792000000002   3.991828000000001  43.218239000000004 1
ion C   9.566872999999999   7.986128000000001   0.031986000000000 1
ion C   4.771256999999999  15.793113000000004   0.143409000000000 1
ion C   7.095977000000001  19.898321000000003   0.006307000000000 1
ion C  16.498858999999999   3.977630000000001  43.204648000000006 1
ion C  14.191642000000002   8.002222000000000  43.171556000000010 1
ion C  11.878304000000000  12.008756000000000  43.217459000000005 1
ion C   9.476290999999996  15.949678000000004  43.241506000000008 1
ion C   0.088670000000000   2.743224000000001   0.079830000000000 1
ion C  -2.319755000000001   6.659806000000001   0.036804000000000 1
ion C  -4.637293000000000  10.658431000000002  43.196910000000010 1
ion C  -6.945562000000001  14.685020000000003  43.205400000000004 1
ion C  -9.274248000000000  18.712831000000005   0.007419000000000 1
ion C   4.781191000000000   2.869896000000000   0.132829000000000 1
ion C  -0.021737000000000  10.669854000000003   0.237991000000000 1
ion C  -2.299231999999998  14.664428000000001   0.044541000000000 1
ion C  -4.621228000000003  18.709857000000003   0.005723000000000 1
ion C   9.486299000000002   2.720604000000000  43.241639000000006 1
ion C   2.386332000000001  14.475375000000001   0.235712000000000 1
ion C   0.087619000000000  18.600753000000005   0.024298000000000 1
ion C  14.176076000000002   2.635562000000000  43.221242000000004 1
ion C  11.882204000000002   6.664948000000001  43.216850000000008 1
ion C   9.565118000000000  10.684214000000003   0.032852000000000 1
ion C   7.170942999999999  14.529368000000003   0.077745000000000 1
ion C   4.768560000000001  18.512199000000003   0.049939000000000 1
ion C  18.825952000000004   2.643392000000000  43.241180000000007 1
ion C  16.497658000000001   6.654476000000002  43.168143000000008 1
ion C  14.189681000000002  10.674856000000004  43.172076000000004 1
ion C  11.846678999999998  14.681834000000002  43.216629000000005 1
ion C   9.462672000000001  18.634692000000005  43.249212000000007 1
ion C   3.373545000000001   9.313461000000002   8.112822000000001 1
ion N   2.273520000000000  11.868275000000002   0.471186000000000 1
ion N   7.279760000000000  11.929746000000002   0.170554000000000 1
ion N   2.278213000000000   6.790718000000001   0.464048000000000 1
ion N   7.282954000000002   6.737880000000001   0.167931000000000 1
ion Ti   5.016645999999999   9.333270000000002   1.741461000000000 1
ion O   5.510458000000000   9.310154000000002   7.482508000000002 1
ion O   1.230734000000000   9.316536000000003   8.620830000000002 1
ion-species /projects/musgravc/apps/jdftx-1.6.0/build/pseudopotentials/GBRV_v1.5/$ID_pbe_v1.uspp
ion-species /projects/musgravc/apps/jdftx-1.6.0/build/pseudopotentials/GBRV_v1.5/$ID_pbe_v1.2.uspp
ion-species /projects/musgravc/apps/jdftx-1.6.0/build/pseudopotentials/GBRV_v1.5/$ID_pbe_v1.4.uspp
ion-species /projects/musgravc/apps/jdftx-1.6.0/build/pseudopotentials/GBRV_v1.5/$ID_pbe_v1.5.uspp
ion-width Ecut
ionic-minimize  \
	dirUpdateScheme      L-BFGS \
	linminMethod         DirUpdateRecommended \
	nIterations          0 \
	history              15 \
	knormThreshold       0.0001 \
	energyDiffThreshold  1e-06 \
	nEnergyDiff          2 \
	alphaTstart          1 \
	alphaTmin            1e-10 \
	updateTestStepSize   yes \
	alphaTreduceFactor   0.1 \
	alphaTincreaseFactor 3 \
	nAlphaAdjustMax      3 \
	wolfeEnergy          0.0001 \
	wolfeGradient        0.9 \
	fdTest               no
kpoint   0.000000000000   0.000000000000   0.000000000000  1.00000000000000
kpoint-folding 3 3 1 
latt-move-scale 0 0 0
latt-scale 1 1 1 
lattice  \
	  23.436261999999999  -11.733459000000000    0.000000000000000  \
	   0.017994000000000   19.941849000000001    0.000000000000000  \
	   0.000000000000000    0.000000000000000   43.256312999999999 
lattice-minimize  \
	dirUpdateScheme      L-BFGS \
	linminMethod         DirUpdateRecommended \
	nIterations          0 \
	history              15 \
	knormThreshold       0 \
	energyDiffThreshold  1e-06 \
	nEnergyDiff          2 \
	alphaTstart          1 \
	alphaTmin            1e-10 \
	updateTestStepSize   yes \
	alphaTreduceFactor   0.1 \
	alphaTincreaseFactor 3 \
	nAlphaAdjustMax      3 \
	wolfeEnergy          0.0001 \
	wolfeGradient        0.9 \
	fdTest               no
lcao-params 30 1e-06 0.001
pcm-variant CANDLE
spintype z-spin
subspace-rotation-factor 1 yes
symmetries none
symmetry-threshold 0.0001
target-mu -0.1602 no

van-der-waals D3


Applied RMS atom displacement 0 bohrs to make symmetries exact.

---------- Initializing the Grid ----------
R = 
[      23.4363     -11.7335            0  ]
[     0.017994      19.9418            0  ]
[            0            0      43.2563  ]
unit cell volume = 20225.5
G =
[   0.267976   0.157673         -0  ]
[ -0.000241801   0.314933          0  ]
[          0         -0   0.145255  ]
Minimum fftbox size, Smin = [  96  96  176  ]
Chosen fftbox size, S = [  96  96  180  ]

---------- Exchange Correlation functional ----------
Initalized PBE GGA exchange.
Initalized PBE GGA correlation.

---------- Setting up pseudopotentials ----------
Width of ionic core gaussian charges (only for fluid interactions / plotting) set to 0.397384

Reading pseudopotential file '/projects/musgravc/apps/jdftx-1.6.0/build/pseudopotentials/GBRV_v1.5/c_pbe_v1.2.uspp':
  Title: C.  Created by USPP 7.3.6 on 3-2-2014
  Reference state energy: -5.406344.  4 valence electrons in orbitals:
    |200>  occupation: 2  eigenvalue: -0.504890
    |210>  occupation: 2  eigenvalue: -0.194356
  lMax: 1  lLocal: 2  QijEcut: 5
  4 projectors sampled on a log grid with 503 points:
    l: 0  eig: -0.504890  rCut: 1.3
    l: 0  eig: 0.000000  rCut: 1.3
    l: 1  eig: -0.194357  rCut: 1.3
    l: 1  eig: 0.000000  rCut: 1.3
  Partial core density with radius 1.1
  Transforming core density to a uniform radial grid of dG=0.02 with 1464 points.
  Transforming local potential to a uniform radial grid of dG=0.02 with 1464 points.
  Transforming nonlocal projectors to a uniform radial grid of dG=0.02 with 432 points.
  Transforming density augmentations to a uniform radial grid of dG=0.02 with 1464 points.
  Transforming atomic orbitals to a uniform radial grid of dG=0.02 with 432 points.
  Core radius for overlap checks: 1.30 bohrs.

Reading pseudopotential file '/projects/musgravc/apps/jdftx-1.6.0/build/pseudopotentials/GBRV_v1.5/n_pbe_v1.2.uspp':
  Title: N.  Created by USPP 7.3.6 on 3-2-2014
  Reference state energy: -9.763716.  5 valence electrons in orbitals:
    |200>  occupation: 2  eigenvalue: -0.681964
    |210>  occupation: 3  eigenvalue: -0.260726
  lMax: 1  lLocal: 2  QijEcut: 6
  4 projectors sampled on a log grid with 491 points:
    l: 0  eig: -0.681964  rCut: 1.15
    l: 0  eig: 0.000000  rCut: 1.15
    l: 1  eig: -0.260729  rCut: 1.2
    l: 1  eig: 0.500000  rCut: 1.2
  Partial core density with radius 0.8
  Transforming core density to a uniform radial grid of dG=0.02 with 1464 points.
  Transforming local potential to a uniform radial grid of dG=0.02 with 1464 points.
  Transforming nonlocal projectors to a uniform radial grid of dG=0.02 with 432 points.
  Transforming density augmentations to a uniform radial grid of dG=0.02 with 1464 points.
  Transforming atomic orbitals to a uniform radial grid of dG=0.02 with 432 points.
  Core radius for overlap checks: 1.20 bohrs.

Reading pseudopotential file '/projects/musgravc/apps/jdftx-1.6.0/build/pseudopotentials/GBRV_v1.5/ti_pbe_v1.4.uspp':
  Title: Ti.  Created by USPP 7.3.6 on 31-3-15
  Reference state energy: -59.020943.  12 valence electrons in orbitals:
    |300>  occupation: 2  eigenvalue: -2.777623
    |310>  occupation: 6  eigenvalue: -1.894596
    |400>  occupation: 2  eigenvalue: -0.438610
    |320>  occupation: 1  eigenvalue: -0.583119
  lMax: 2  lLocal: 3  QijEcut: 6
  6 projectors sampled on a log grid with 597 points:
    l: 0  eig: -2.777624  rCut: 1.8
    l: 0  eig: -0.438611  rCut: 1.8
    l: 1  eig: -1.894596  rCut: 1.8
    l: 1  eig: 0.500000  rCut: 1.8
    l: 2  eig: -0.583118  rCut: 1.8
    l: 2  eig: 0.150000  rCut: 1.8
  Partial core density with radius 0.8
  Transforming core density to a uniform radial grid of dG=0.02 with 1464 points.
  Transforming local potential to a uniform radial grid of dG=0.02 with 1464 points.
  Transforming nonlocal projectors to a uniform radial grid of dG=0.02 with 432 points.
  Transforming density augmentations to a uniform radial grid of dG=0.02 with 1464 points.
  Transforming atomic orbitals to a uniform radial grid of dG=0.02 with 432 points.
  Core radius for overlap checks: 1.80 bohrs.

Reading pseudopotential file '/projects/musgravc/apps/jdftx-1.6.0/build/pseudopotentials/GBRV_v1.5/o_pbe_v1.2.uspp':
  Title: O.  Created by USPP 7.3.6 on 3-2-2014
  Reference state energy: -15.894388.  6 valence electrons in orbitals:
    |200>  occupation: 2  eigenvalue: -0.878823
    |210>  occupation: 4  eigenvalue: -0.332131
  lMax: 2  lLocal: 2  QijEcut: 6
  5 projectors sampled on a log grid with 511 points:
    l: 0  eig: -0.878823  rCut: 1.25
    l: 0  eig: 0.000000  rCut: 1.25
    l: 1  eig: -0.332132  rCut: 1.25
    l: 1  eig: 0.000000  rCut: 1.25
    l: 2  eig: 1.000000  rCut: 1.25
  Partial core density with radius 0.7
  Transforming core density to a uniform radial grid of dG=0.02 with 1464 points.
  Transforming local potential to a uniform radial grid of dG=0.02 with 1464 points.
  Transforming nonlocal projectors to a uniform radial grid of dG=0.02 with 432 points.
  Transforming density augmentations to a uniform radial grid of dG=0.02 with 1464 points.
  Transforming atomic orbitals to a uniform radial grid of dG=0.02 with 432 points.
  Core radius for overlap checks: 1.25 bohrs.

Initialized 4 species with 52 total atoms.

Folded 1 k-points by 3x3x1 to 9 k-points.

---------- Setting up k-points, bands, fillings ----------
No reducable k-points. 
Computing the number of bands and number of electrons
Calculating initial fillings.
nElectrons: 224.000000   nBands: 135   nStates: 18

----- Setting up reduced wavefunction bases (one per k-point) -----
average nbasis = 86412.556 , ideal nbasis = 86404.907

----- Initializing Supercell corresponding to k-point mesh -----
Lattice vector linear combinations in supercell:
[   3   0   0  ]
[   0   3   0  ]
[   0   0   1  ]
Supercell lattice vectors:
[  70.3088  -35.2004  0  ]
[  0.053982  59.8255  0  ]
[  0  0  43.2563  ]

Initializing DFT-D3 calculator:
	Parameters set for gga-PBE functional
	s6:  1.000  s_r6:  1.217
	s8:  0.722  s_r8:  1.000
	Per-atom parameters loaded for:
	 C:  sqrtQ[a0]:  3.105  Rcov[a0]:  1.417  CN: [ 0.00 0.99 2.00 3.00 3.98 ]
	 N:  sqrtQ[a0]:  2.712  Rcov[a0]:  1.342  CN: [ 0.00 0.99 2.01 2.99 ]
	Ti:  sqrtQ[a0]:  6.288  Rcov[a0]:  2.305  CN: [ 0.00 1.83 3.87 ]
	 O:  sqrtQ[a0]:  2.594  Rcov[a0]:  1.191  CN: [ 0.00 0.99 1.99 ]

Initializing DFT-D2 calculator for fluid / solvation:
	 C:  C6:   30.35 Eh-a0^6  R0: 2.744 a0
	 N:  C6:   21.33 Eh-a0^6  R0: 2.640 a0
	Ti:  C6:  187.33 Eh-a0^6  R0: 2.952 a0
	 O:  C6:   12.14 Eh-a0^6  R0: 2.536 a0

---------- Setting up ewald sum ----------
Optimum gaussian width for ewald sums = 5.626124 bohr.
Real space sum over 567 unit cells with max indices [  4  4  3  ]
Reciprocal space sum over 7803 terms with max indices [  8  8  13  ]

Computing DFT-D3 correction:
# coordination-number C 3.299 3.321 3.333 3.331 3.312 3.289 3.314 3.503 3.327 3.312 3.301 3.334 3.299 3.299 3.321 3.722 3.266 3.301 3.318 3.332 3.326 3.303 3.299 3.327 3.333 3.318 3.299 3.266 3.503 3.321 3.301 3.303 3.314 3.299 3.312 3.326 3.723 3.334 3.290 3.312 3.331 3.332 3.321 3.301 2.022
# coordination-number N 3.165 3.182 3.165 3.182
# coordination-number Ti 5.625
# coordination-number O 1.058 1.014
# diagonal-C6 C 24.29 24.07 23.94 23.97 24.17 24.38 24.15 21.60 24.01 24.16 24.27 23.93 24.29 24.29 24.07 19.15 24.58 24.28 24.10 23.95 24.02 24.25 24.29 24.01 23.94 24.10 24.29 24.58 21.59 24.07 24.28 24.25 24.14 24.29 24.17 24.02 19.15 23.93 24.38 24.16 23.97 23.95 24.07 24.27 29.45
# diagonal-C6 N 15.60 15.60 15.60 15.60
# diagonal-C6 Ti 321.59
# diagonal-C6 O 12.76 12.80
EvdW_6 =   -0.038232
EvdW_8 =   -0.030604

---------- Allocating electronic variables ----------
Initializing wave functions:  linear combination of atomic orbitals
C pseudo-atom occupations:   s ( 2 )  p ( 2 )
N pseudo-atom occupations:   s ( 2 )  p ( 3 )
Ti pseudo-atom occupations:   s ( 2 0 )  p ( 6 )  d ( 4 )
O pseudo-atom occupations:   s ( 2 )  p ( 4 )
	FillingsUpdate:  mu: -0.160200000  nElectrons: 224.000000  magneticMoment: [ Abs: 0.00460  Tot: +0.00001 ]
LCAOMinimize: Iter:   0  G: -346.5905514396174567  |grad|_K:  3.067e-03  alpha:  1.000e+00
	FillingsUpdate:  mu: -0.160200000  nElectrons: 224.000000  magneticMoment: [ Abs: 0.00452  Tot: +0.00000 ]
LCAOMinimize: Iter:   1  G: -346.9932434340449845  |grad|_K:  1.815e-03  alpha:  8.043e-02  linmin: -1.295e-01  cgtest:  1.338e+00  t[s]:    289.65
LCAOMinimize: Encountered beta<0, resetting CG.
LCAOMinimize: 	Predicted alpha/alphaT>3.000000, increasing alphaT to 2.413039e-01.
	FillingsUpdate:  mu: -0.160200000  nElectrons: 224.000000  magneticMoment: [ Abs: 0.00476  Tot: -0.00024 ]
LCAOMinimize: Iter:   2  G: -348.0404512202354681  |grad|_K:  2.671e-03  alpha:  4.570e-01  linmin:  1.758e-01  cgtest: -3.008e-01  t[s]:    426.96
LCAOMinimize: 	Bad step direction: g.d > 0.
LCAOMinimize: 	Undoing step.
LCAOMinimize: 	Step failed: resetting search direction.
	FillingsUpdate:  mu: -0.160200000  nElectrons: 224.000000  magneticMoment: [ Abs: 0.00476  Tot: -0.00024 ]
LCAOMinimize: Iter:   3  G: -348.0404512202354681  |grad|_K:  2.671e-03  alpha:  0.000e+00
	FillingsUpdate:  mu: -0.160200000  nElectrons: 224.000000  magneticMoment: [ Abs: 0.00456  Tot: -0.00001 ]
LCAOMinimize: Iter:   4  G: -348.0711379621009769  |grad|_K:  1.404e-03  alpha:  1.915e-01  linmin:  6.053e-02  cgtest: -2.601e+00  t[s]:    618.13
LCAOMinimize: 	Bad step direction: g.d > 0.
LCAOMinimize: 	Undoing step.
LCAOMinimize: 	Step failed: resetting search direction.
	FillingsUpdate:  mu: -0.160200000  nElectrons: 224.000000  magneticMoment: [ Abs: 0.00456  Tot: -0.00001 ]
LCAOMinimize: Iter:   5  G: -348.0711379621009769  |grad|_K:  1.404e-03  alpha:  0.000e+00
	FillingsUpdate:  mu: -0.160200000  nElectrons: 224.000000  magneticMoment: [ Abs: 0.00457  Tot: -0.00001 ]
LCAOMinimize: Iter:   6  G: -348.1120765998767297  |grad|_K:  1.351e-03  alpha:  2.378e-02  linmin: -1.926e-01  cgtest:  8.884e-01  t[s]:    813.92
LCAOMinimize: 	Wrong curvature in test step, increasing alphaT to 7.133476e-02.
	FillingsUpdate:  mu: -0.160200000  nElectrons: 224.000000  magneticMoment: [ Abs: 0.00459  Tot: -0.00001 ]
LCAOMinimize: Iter:   7  G: -348.1516110693775090  |grad|_K:  1.257e-03  alpha: -9.910e-01  linmin: -1.900e-01  cgtest:  8.638e-01  t[s]:    921.09
	FillingsUpdate:  mu: -0.160200000  nElectrons: 224.000000  magneticMoment: [ Abs: 0.00464  Tot: -0.00001 ]
LCAOMinimize: Iter:   8  G: -348.1991289975491668  |grad|_K:  9.973e-04  alpha:  3.274e-02  linmin: -1.884e-01  cgtest:  7.868e-01  t[s]:   1030.39
LCAOMinimize: 	Predicted alpha/alphaT>3.000000, increasing alphaT to 9.820988e-02.
	FillingsUpdate:  mu: -0.160200000  nElectrons: 224.000000  magneticMoment: [ Abs: 0.00471  Tot: -0.00005 ]
LCAOMinimize: Iter:   9  G: -348.2246676180612326  |grad|_K:  5.534e-04  alpha:  3.436e-02  linmin: -1.520e-01  cgtest:  8.186e-01  t[s]:   1168.74
LCAOMinimize: Encountered beta<0, resetting CG.
	FillingsUpdate:  mu: -0.160200000  nElectrons: 224.000000  magneticMoment: [ Abs: 0.00486  Tot: -0.00017 ]
LCAOMinimize: Iter:  10  G: -348.2306263894231506  |grad|_K:  3.205e-04  alpha:  6.453e-02  linmin:  8.545e-02  cgtest: -6.817e-01  t[s]:   1278.20
LCAOMinimize: 	Bad step direction: g.d > 0.
LCAOMinimize: 	Undoing step.
LCAOMinimize: 	Step failed: resetting search direction.
	FillingsUpdate:  mu: -0.160200000  nElectrons: 224.000000  magneticMoment: [ Abs: 0.00486  Tot: -0.00017 ]
LCAOMinimize: Iter:  11  G: -348.2306263894231506  |grad|_K:  3.205e-04  alpha:  0.000e+00
	FillingsUpdate:  mu: -0.160200000  nElectrons: 224.000000  magneticMoment: [ Abs: 0.00484  Tot: -0.00013 ]
LCAOMinimize: Iter:  12  G: -348.2324913877152994  |grad|_K:  1.103e-04  alpha:  4.508e-02  linmin:  1.959e-03  cgtest: -6.156e-02  t[s]:   1469.29
LCAOMinimize: 	Predicted alpha/alphaT>3.000000, increasing alphaT to 1.352449e-01.
LCAOMinimize: 	Predicted alpha/alphaT>3.000000, increasing alphaT to 4.057348e-01.
	FillingsUpdate:  mu: -0.160200000  nElectrons: 224.000000  magneticMoment: [ Abs: 0.00517  Tot: -0.00030 ]
LCAOMinimize: Iter:  13  G: -348.2344457869875782  |grad|_K:  5.647e-05  alpha:  3.872e-01  linmin:  2.432e-02  cgtest: -2.424e-02  t[s]:   1635.24
	FillingsUpdate:  mu: -0.160200000  nElectrons: 224.000000  magneticMoment: [ Abs: 0.00554  Tot: -0.00050 ]
LCAOMinimize: Iter:  14  G: -348.2347227060420209  |grad|_K:  7.266e-05  alpha:  2.191e-01  linmin: -9.704e-04  cgtest:  9.120e-02  t[s]:   1744.49
	FillingsUpdate:  mu: -0.160200000  nElectrons: 224.000000  magneticMoment: [ Abs: 0.00580  Tot: -0.00061 ]
LCAOMinimize: Iter:  15  G: -348.2348839091541777  |grad|_K:  2.635e-05  alpha:  6.821e-02  linmin:  1.315e-02  cgtest: -3.382e-01  t[s]:   1856.78
LCAOMinimize: 	Predicted alpha/alphaT>3.000000, increasing alphaT to 2.046189e-01.
	FillingsUpdate:  mu: -0.160200000  nElectrons: 224.000000  magneticMoment: [ Abs: 0.00678  Tot: -0.00107 ]
LCAOMinimize: Iter:  16  G: -348.2349469616329998  |grad|_K:  1.914e-05  alpha:  2.609e-01  linmin:  2.222e-02  cgtest:  8.933e-02  t[s]:   1995.00
	FillingsUpdate:  mu: -0.160200000  nElectrons: 224.000000  magneticMoment: [ Abs: 0.00776  Tot: -0.00148 ]
LCAOMinimize: Iter:  17  G: -348.2349754713602579  |grad|_K:  2.606e-05  alpha:  1.693e-01  linmin:  2.428e-02  cgtest: -2.651e-01  t[s]:   2104.45
	FillingsUpdate:  mu: -0.160200000  nElectrons: 224.000000  magneticMoment: [ Abs: 0.00840  Tot: -0.00175 ]
LCAOMinimize: Iter:  18  G: -348.2349835030154281  |grad|_K:  2.008e-05  alpha:  3.198e-02  linmin:  7.262e-03  cgtest:  9.597e-01  t[s]:   2215.16
LCAOMinimize: Encountered beta<0, resetting CG.
	FillingsUpdate:  mu: -0.160200000  nElectrons: 224.000000  magneticMoment: [ Abs: 0.00861  Tot: -0.00185 ]
LCAOMinimize: Iter:  19  G: -348.2349874556677491  |grad|_K:  1.008e-05  alpha:  2.608e-02  linmin: -1.079e-01  cgtest:  8.672e-01  t[s]:   2328.02
LCAOMinimize: Encountered beta<0, resetting CG.
	FillingsUpdate:  mu: -0.160200000  nElectrons: 224.000000  magneticMoment: [ Abs: 0.00892  Tot: -0.00198 ]
LCAOMinimize: Iter:  20  G: -348.2349894217023234  |grad|_K:  7.660e-06  alpha:  3.872e-02  linmin: -2.054e-01  cgtest:  8.183e-01  t[s]:   2437.53
LCAOMinimize: Encountered beta<0, resetting CG.
LCAOMinimize: 	Wrong curvature in test step, increasing alphaT to 1.161738e-01.
	FillingsUpdate:  mu: -0.160200000  nElectrons: 224.000000  magneticMoment: [ Abs: 0.00923  Tot: -0.00211 ]
LCAOMinimize: Iter:  21  G: -348.2349918357980982  |grad|_K:  7.046e-06  alpha: -6.988e-02  linmin: -2.832e-01  cgtest:  9.989e-01  t[s]:   2544.69
LCAOMinimize: Encountered beta<0, resetting CG.
	FillingsUpdate:  mu: -0.160200000  nElectrons: 224.000000  magneticMoment: [ Abs: 0.01555  Tot: -0.00457 ]
LCAOMinimize: Iter:  22  G: -348.2350090775112790  |grad|_K:  5.919e-06  alpha:  7.060e-01  linmin:  1.025e-01  cgtest: -4.826e-01  t[s]:   2654.66
	FillingsUpdate:  mu: -0.160200000  nElectrons: 224.000000  magneticMoment: [ Abs: 0.02068  Tot: -0.00649 ]
LCAOMinimize: Iter:  23  G: -348.2350097908403654  |grad|_K:  5.784e-06  alpha:  1.708e-01  linmin: -7.035e-03  cgtest:  8.850e-01  t[s]:   2764.90
LCAOMinimize: 	Step increased G by 1.304100e-07, reducing alpha to 7.153374e-03.
	FillingsUpdate:  mu: -0.160200000  nElectrons: 224.000000  magneticMoment: [ Abs: 0.02090  Tot: -0.00658 ]
LCAOMinimize: Iter:  24  G: -348.2350097943567562  |grad|_K:  5.686e-06  alpha:  7.153e-03  linmin: -2.363e-01  cgtest:  9.995e-01  t[s]:   2956.80
LCAOMinimize: Encountered beta<0, resetting CG.
LCAOMinimize: Converged (|Delta G|<1.000000e-06 for 2 iters).
----- createFluidSolver() ----- (Fluid-side solver setup)
   Initializing fluid molecule 'H2O'
     Initializing site 'O'
       Electron density: proportional to exp(-r/0.36935)*erfc((r-0.51523)/0.36823) with norm 6.826
       Charge density: gaussian nuclear width 0.478731 with net site charge 0.826
       Polarizability: cuspless exponential with width 0.32 and norm 3.73
       Hard sphere radius: 2.57003 bohrs
       Positions in reference frame:
         [ +0.000000 +0.000000 +0.000000 ]
     Initializing site 'H'
       Electron density: proportional to exp(-r/0.34641)*erfc((r-0)/0.390882) with norm 0.587
       Charge density: gaussian nuclear width 0.377945 with net site charge -0.413
       Polarizability: cuspless exponential with width 0.39 and norm 3.3
       Positions in reference frame:
         [ +0.000000 -1.441945 +1.122523 ]
         [ +0.000000 +1.441945 +1.122523 ]
     Net charge: 0   dipole magnitude: 0.927204
     Initializing spherical shell mfKernel with radius 2.61727 Bohr
     deltaS corrections:
       site 'O': -7.54299
       site 'H': -6.83917
   Initializing fluid molecule 'Na+'
     Initializing site 'Na'
       Electron density: proportional to exp(-r/0.19682)*erfc((r-0.71491)/0.41314) with norm 8.1383
       Charge density: gaussian nuclear width 0.365347 with net site charge -1
       Hard sphere radius: 1.86327 bohrs
       Positions in reference frame:
         [ +0.000000 +0.000000 +0.000000 ]
     Net charge: -1   dipole magnitude: 0
     Initializing gaussian mfKernel with width: 1.55004 Bohr
     deltaS corrections:
       site 'Na': -22.3555
   Initializing fluid molecule 'F-'
     Initializing site 'F'
       Electron density: proportional to exp(-r/0.38886)*erfc((r-0)/0.438782) with norm 8
       Charge density: gaussian nuclear width 0.374796 with net site charge 1
       Hard sphere radius: 2.39995 bohrs
       Positions in reference frame:
         [ +0.000000 +0.000000 +0.000000 ]
     Net charge: 1   dipole magnitude: 0
     Initializing gaussian mfKernel with width: 1.59012 Bohr
     deltaS corrections:
       site 'F': -9.04335

Correction to mu due to finite nuclear width = -0.0109887
   Cavity determined by nc: 0.00142 and sigma: 0.707107
   Nonlocal vdW cavity from gaussian model electron density with norm = 8 and sigma = 0.993594 bohr
   Charge asymmetry in cavity with sensitivity pCavity = 36.5 e-bohr/Eh
   Electrostatic cavity expanded by eta = 1.46 bohrs
   Weighted density cavitation model constrained by Nbulk: 0.0049383 bohr^-3, Pvap: 3.14029 kPa, Rvdw: 2.61727 bohr and sigmaBulk: 4.62e-05 Eh/bohr^2 at T: 298 K.
   Weighted density dispersion model using vdW pair potentials with single solvent site with sqrtC6eff: 0.77 SI.


---- Citations for features of the code used in this run ----

   Software package:
      R. Sundararaman, K. Letchworth-Weaver, K.A. Schwarz, D. Gunceler, Y. Ozhabes and T.A. Arias, 'JDFTx: software for joint density-functional theory', SoftwareX 6, 278 (2017)

   gga-PBE exchange-correlation functional:
      J.P. Perdew, K. Burke and M. Ernzerhof, Phys. Rev. Lett. 77, 3865 (1996)

   Pseudopotentials:
      KF Garrity, JW Bennett, KM Rabe and D Vanderbilt, Comput. Mater. Sci. 81, 446 (2014)

   DFT-D3 dispersion correction:
      S. Grimme, J. Antony, S. Ehrlich and H. Krieg, J. Chem. Phys. 132, 154104 (2010)

   DFT-D2 dispersion correction:
      S. Grimme, J. Comput. Chem. 27, 1787 (2006)

   Charge-asymmetric nonlocally-determined local-electric (CANDLE) solvation model:
      R. Sundararaman and W.A. Goddard III, J. Chem. Phys. 142, 064107 (2015)

   Total energy minimization with Auxiliary Hamiltonian:
      C. Freysoldt, S. Boeck, and J. Neugebauer, Phys. Rev. B 79, 241103(R) (2009)

   Grand-canonical (fixed-potential) DFT:
      R. Sundararaman, W. A. Goddard III and T. A. Arias, J. Chem. Phys. 146, 114104 (2017)

   Linear-tetrahedron sampling for density of states:
      G. Lehmann and M. Taut, Phys. status solidi (b) 54, 469 (1972)

This list may not be complete. Please suggest additional citations or
report any other bugs at https://github.com/shankar1729/jdftx/issues

Initialization completed successfully at t[s]:   2971.64


Computing DFT-D3 correction:
# coordination-number C 3.299 3.321 3.333 3.331 3.312 3.289 3.314 3.503 3.327 3.312 3.301 3.334 3.299 3.299 3.321 3.722 3.266 3.301 3.318 3.332 3.326 3.303 3.299 3.327 3.333 3.318 3.299 3.266 3.503 3.321 3.301 3.303 3.314 3.299 3.312 3.326 3.723 3.334 3.290 3.312 3.331 3.332 3.321 3.301 2.022
# coordination-number N 3.165 3.182 3.165 3.182
# coordination-number Ti 5.625
# coordination-number O 1.058 1.014
# diagonal-C6 C 24.29 24.07 23.94 23.97 24.17 24.38 24.15 21.60 24.01 24.16 24.27 23.93 24.29 24.29 24.07 19.15 24.58 24.28 24.10 23.95 24.02 24.25 24.29 24.01 23.94 24.10 24.29 24.58 21.59 24.07 24.28 24.25 24.14 24.29 24.17 24.02 19.15 23.93 24.38 24.16 23.97 23.95 24.07 24.27 29.45
# diagonal-C6 N 15.60 15.60 15.60 15.60
# diagonal-C6 Ti 321.59
# diagonal-C6 O 12.76 12.80
EvdW_6 =   -0.038232
EvdW_8 =   -0.030604
Fluid solver invoked on fresh (random / LCAO) wavefunctions
Running a vacuum solve first:

-------- Initial electronic minimization -----------
	FillingsUpdate:  mu: -0.176282661  nElectrons: 224.000000  magneticMoment: [ Abs: 0.02090  Tot: -0.00658 ]
ElecMinimize: Iter:   0  G: -348.234022731499977  |grad|_K:  1.463e-04  alpha:  1.000e+00
	FillingsUpdate:  mu: -0.145122704  nElectrons: 224.000000  magneticMoment: [ Abs: 0.03947  Tot: -0.01427 ]
	SubspaceRotationAdjust: set factor to 0.805
ElecMinimize: Iter:   1  G: -351.216860261828685  |grad|_K:  6.813e-05  alpha:  6.730e-01  linmin:  2.271e-04  t[s]:   3155.54
ElecMinimize: 	Step increased G by 4.783601e-02, reducing alpha to 9.752116e-03.
	FillingsUpdate:  mu: -0.124959305  nElectrons: 224.000000  magneticMoment: [ Abs: 0.04593  Tot: -0.01955 ]
	SubspaceRotationAdjust: set factor to 0.837
ElecMinimize: Iter:   2  G: -351.234477323757403  |grad|_K:  5.629e-05  alpha:  9.752e-03  linmin: -3.421e-03  t[s]:   3339.05
ElecMinimize: 	Predicted alpha/alphaT>3.000000, increasing alphaT to 2.925635e-02.
	FillingsUpdate:  mu: -0.050908835  nElectrons: 224.000000  magneticMoment: [ Abs: 0.09295  Tot: -0.06462 ]
	SubspaceRotationAdjust: set factor to 0.526
ElecMinimize: Iter:   3  G: -351.273572825797430  |grad|_K:  6.603e-05  alpha:  3.476e-02  linmin:  1.793e-03  t[s]:   3479.36
	FillingsUpdate:  mu: -0.051069217  nElectrons: 224.000000  magneticMoment: [ Abs: 0.09871  Tot: -0.07035 ]
	SubspaceRotationAdjust: set factor to 0.387
ElecMinimize: Iter:   4  G: -351.273819991023913  |grad|_K:  6.330e-05  alpha:  3.339e-03  linmin:  1.262e-04  t[s]:   3588.98
ElecMinimize: 	Predicted alpha/alphaT>3.000000, increasing alphaT to 1.001631e-02.
ElecMinimize: 	Predicted alpha/alphaT>3.000000, increasing alphaT to 3.004892e-02.
	FillingsUpdate:  mu: -0.052273110  nElectrons: 224.000000  magneticMoment: [ Abs: 0.15396  Tot: -0.12493 ]
	SubspaceRotationAdjust: set factor to 0.228
ElecMinimize: Iter:   5  G: -351.310123152849769  |grad|_K:  8.241e-05  alpha:  4.422e-02  linmin: -2.374e-04  t[s]:   3758.03
	FillingsUpdate:  mu: -0.050863548  nElectrons: 224.000000  magneticMoment: [ Abs: 0.27212  Tot: -0.21929 ]
	SubspaceRotationAdjust: set factor to 0.143
ElecMinimize: Iter:   6  G: -351.411167976762329  |grad|_K:  6.487e-05  alpha:  6.164e-02  linmin: -1.394e-05  t[s]:   3869.64
	FillingsUpdate:  mu: -0.048336571  nElectrons: 224.000000  magneticMoment: [ Abs: 0.29756  Tot: -0.19873 ]
	SubspaceRotationAdjust: set factor to 0.191
ElecMinimize: Iter:   7  G: -351.464166902288412  |grad|_K:  3.563e-05  alpha:  5.907e-02  linmin:  6.949e-05  t[s]:   3981.26
	FillingsUpdate:  mu: -0.051463103  nElectrons: 224.000000  magneticMoment: [ Abs: 0.25840  Tot: -0.14213 ]
	SubspaceRotationAdjust: set factor to 0.212
ElecMinimize: Iter:   8  G: -351.481740768556847  |grad|_K:  2.663e-05  alpha:  6.898e-02  linmin: -6.426e-05  t[s]:   4092.99
	FillingsUpdate:  mu: -0.100818857  nElectrons: 224.000000  magneticMoment: [ Abs: 0.22022  Tot: -0.08945 ]
	SubspaceRotationAdjust: set factor to 0.208
ElecMinimize: Iter:   9  G: -351.500366971206063  |grad|_K:  2.619e-05  alpha:  1.136e-01  linmin: -1.731e-04  t[s]:   4204.46
	FillingsUpdate:  mu: -0.118616266  nElectrons: 224.000000  magneticMoment: [ Abs: 0.24463  Tot: -0.08797 ]
	SubspaceRotationAdjust: set factor to 0.173
ElecMinimize: Iter:  10  G: -351.527705997048201  |grad|_K:  2.475e-05  alpha:  1.705e-01  linmin: -6.442e-06  t[s]:   4316.20
	FillingsUpdate:  mu: -0.077814186  nElectrons: 224.000000  magneticMoment: [ Abs: 0.34097  Tot: -0.16574 ]
	SubspaceRotationAdjust: set factor to 0.313
ElecMinimize: Iter:  11  G: -351.542533331562254  |grad|_K:  1.520e-05  alpha:  1.108e-01  linmin: -9.870e-06  t[s]:   4428.34
	FillingsUpdate:  mu: -0.049410809  nElectrons: 224.000000  magneticMoment: [ Abs: 0.41890  Tot: -0.24204 ]
	SubspaceRotationAdjust: set factor to 0.291
ElecMinimize: Iter:  12  G: -351.547429458655245  |grad|_K:  1.201e-05  alpha:  9.988e-02  linmin:  7.674e-05  t[s]:   4539.97
	FillingsUpdate:  mu: -0.045104040  nElectrons: 224.000000  magneticMoment: [ Abs: 0.51944  Tot: -0.32901 ]
	SubspaceRotationAdjust: set factor to 0.222
ElecMinimize: Iter:  13  G: -351.552620626153953  |grad|_K:  1.651e-05  alpha:  1.755e-01  linmin: -6.621e-06  t[s]:   4651.38
	FillingsUpdate:  mu: -0.046156164  nElectrons: 224.000000  magneticMoment: [ Abs: 0.59316  Tot: -0.35883 ]
	SubspaceRotationAdjust: set factor to 0.256
ElecMinimize: Iter:  14  G: -351.560425954799712  |grad|_K:  1.303e-05  alpha:  1.367e-01  linmin: -1.475e-05  t[s]:   4762.93
	FillingsUpdate:  mu: -0.055437425  nElectrons: 224.000000  magneticMoment: [ Abs: 0.59305  Tot: -0.32735 ]
	SubspaceRotationAdjust: set factor to 0.271
ElecMinimize: Iter:  15  G: -351.564203939914307  |grad|_K:  8.420e-06  alpha:  1.068e-01  linmin: -5.139e-05  t[s]:   4874.81
	FillingsUpdate:  mu: -0.068989227  nElectrons: 224.000000  magneticMoment: [ Abs: 0.61175  Tot: -0.32400 ]
	SubspaceRotationAdjust: set factor to 0.22
ElecMinimize: Iter:  16  G: -351.566654955643571  |grad|_K:  8.833e-06  alpha:  1.614e-01  linmin: -1.991e-04  t[s]:   4986.34
	FillingsUpdate:  mu: -0.064693819  nElectrons: 224.000000  magneticMoment: [ Abs: 0.71203  Tot: -0.41105 ]
	SubspaceRotationAdjust: set factor to 0.291
ElecMinimize: Iter:  17  G: -351.569628593777622  |grad|_K:  7.252e-06  alpha:  1.774e-01  linmin:  3.977e-05  t[s]:   5097.81
	FillingsUpdate:  mu: -0.055490995  nElectrons: 224.000000  magneticMoment: [ Abs: 0.81045  Tot: -0.50063 ]
	SubspaceRotationAdjust: set factor to 0.284
ElecMinimize: Iter:  18  G: -351.571445237679029  |grad|_K:  6.202e-06  alpha:  1.666e-01  linmin: -1.647e-04  t[s]:   5209.36
	FillingsUpdate:  mu: -0.051094109  nElectrons: 224.000000  magneticMoment: [ Abs: 0.92421  Tot: -0.59394 ]
	SubspaceRotationAdjust: set factor to 0.247
ElecMinimize: Iter:  19  G: -351.573898205223031  |grad|_K:  6.221e-06  alpha:  2.883e-01  linmin: -2.960e-05  t[s]:   5319.00
	FillingsUpdate:  mu: -0.055780294  nElectrons: 224.000000  magneticMoment: [ Abs: 0.97329  Tot: -0.63803 ]
	SubspaceRotationAdjust: set factor to 0.384
ElecMinimize: Iter:  20  G: -351.575371021441356  |grad|_K:  4.018e-06  alpha:  1.851e-01  linmin:  9.663e-06  t[s]:   5428.70
	FillingsUpdate:  mu: -0.060333282  nElectrons: 224.000000  magneticMoment: [ Abs: 1.00631  Tot: -0.67313 ]
	SubspaceRotationAdjust: set factor to 0.361
ElecMinimize: Iter:  21  G: -351.576235977998579  |grad|_K:  3.965e-06  alpha:  2.503e-01  linmin: -1.605e-04  t[s]:   5540.44
	FillingsUpdate:  mu: -0.057326121  nElectrons: 224.000000  magneticMoment: [ Abs: 1.12461  Tot: -0.84185 ]
	SubspaceRotationAdjust: set factor to 0.377
ElecMinimize: Iter:  22  G: -351.577242040835472  |grad|_K:  2.873e-06  alpha:  2.951e-01  linmin:  3.213e-04  t[s]:   5651.88
	FillingsUpdate:  mu: -0.057650536  nElectrons: 224.000000  magneticMoment: [ Abs: 1.23202  Tot: -0.98753 ]
	SubspaceRotationAdjust: set factor to 0.38
ElecMinimize: Iter:  23  G: -351.577723734515757  |grad|_K:  3.067e-06  alpha:  3.277e-01  linmin:  8.982e-05  t[s]:   5763.37
	FillingsUpdate:  mu: -0.060059957  nElectrons: 224.000000  magneticMoment: [ Abs: 1.31035  Tot: -1.07756 ]
	SubspaceRotationAdjust: set factor to 0.516
ElecMinimize: Iter:  24  G: -351.578131914286871  |grad|_K:  2.624e-06  alpha:  2.198e-01  linmin: -5.607e-06  t[s]:   5874.83
	FillingsUpdate:  mu: -0.061693955  nElectrons: 224.000000  magneticMoment: [ Abs: 1.39514  Tot: -1.16012 ]
	SubspaceRotationAdjust: set factor to 0.541
ElecMinimize: Iter:  25  G: -351.578563125324479  |grad|_K:  2.622e-06  alpha:  2.950e-01  linmin: -3.744e-05  t[s]:   5986.60
	FillingsUpdate:  mu: -0.059484245  nElectrons: 224.000000  magneticMoment: [ Abs: 1.46875  Tot: -1.22819 ]
	SubspaceRotationAdjust: set factor to 0.623
ElecMinimize: Iter:  26  G: -351.578855060839032  |grad|_K:  2.357e-06  alpha:  1.993e-01  linmin: -2.867e-06  t[s]:   6098.09
	FillingsUpdate:  mu: -0.059584922  nElectrons: 224.000000  magneticMoment: [ Abs: 1.51951  Tot: -1.25982 ]
	SubspaceRotationAdjust: set factor to 0.777
ElecMinimize: Iter:  27  G: -351.579159287702680  |grad|_K:  2.043e-06  alpha:  2.569e-01  linmin: -6.857e-05  t[s]:   6208.87
	FillingsUpdate:  mu: -0.060931784  nElectrons: 224.000000  magneticMoment: [ Abs: 1.55638  Tot: -1.28167 ]
	SubspaceRotationAdjust: set factor to 0.717
ElecMinimize: Iter:  28  G: -351.579398264975680  |grad|_K:  2.117e-06  alpha:  2.616e-01  linmin: -1.242e-04  t[s]:   6318.51
	FillingsUpdate:  mu: -0.058522457  nElectrons: 224.000000  magneticMoment: [ Abs: 1.60437  Tot: -1.32765 ]
	SubspaceRotationAdjust: set factor to 0.627
ElecMinimize: Iter:  29  G: -351.579535110482595  |grad|_K:  1.743e-06  alpha:  1.380e-01  linmin: -1.666e-05  t[s]:   6428.02
	FillingsUpdate:  mu: -0.059045956  nElectrons: 224.000000  magneticMoment: [ Abs: 1.63886  Tot: -1.35844 ]
	SubspaceRotationAdjust: set factor to 0.863
ElecMinimize: Iter:  30  G: -351.579682569722877  |grad|_K:  1.293e-06  alpha:  2.297e-01  linmin: -1.021e-05  t[s]:   6537.45
	FillingsUpdate:  mu: -0.060342370  nElectrons: 224.000000  magneticMoment: [ Abs: 1.65135  Tot: -1.36951 ]
	SubspaceRotationAdjust: set factor to 0.839
ElecMinimize: Iter:  31  G: -351.579767810066073  |grad|_K:  1.393e-06  alpha:  2.416e-01  linmin:  3.836e-06  t[s]:   6647.12
	FillingsUpdate:  mu: -0.059168472  nElectrons: 224.000000  magneticMoment: [ Abs: 1.66999  Tot: -1.38912 ]
	SubspaceRotationAdjust: set factor to 0.685
ElecMinimize: Iter:  32  G: -351.579817583391105  |grad|_K:  1.010e-06  alpha:  1.244e-01  linmin:  1.069e-05  t[s]:   6756.60
	FillingsUpdate:  mu: -0.059651903  nElectrons: 224.000000  magneticMoment: [ Abs: 1.67354  Tot: -1.39384 ]
	SubspaceRotationAdjust: set factor to 0.829
ElecMinimize: Iter:  33  G: -351.579873867143931  |grad|_K:  8.078e-07  alpha:  2.648e-01  linmin:  2.933e-06  t[s]:   6866.00
	FillingsUpdate:  mu: -0.060310577  nElectrons: 224.000000  magneticMoment: [ Abs: 1.66998  Tot: -1.39205 ]
	SubspaceRotationAdjust: set factor to 0.888
ElecMinimize: Iter:  34  G: -351.579910920256111  |grad|_K:  7.900e-07  alpha:  2.710e-01  linmin:  3.393e-06  t[s]:   6975.42
	FillingsUpdate:  mu: -0.059523351  nElectrons: 224.000000  magneticMoment: [ Abs: 1.67357  Tot: -1.39762 ]
	SubspaceRotationAdjust: set factor to 0.751
ElecMinimize: Iter:  35  G: -351.579928823394880  |grad|_K:  6.685e-07  alpha:  1.373e-01  linmin:  3.028e-06  t[s]:   7084.76
	FillingsUpdate:  mu: -0.059952330  nElectrons: 224.000000  magneticMoment: [ Abs: 1.66641  Tot: -1.39309 ]
	SubspaceRotationAdjust: set factor to 0.809
ElecMinimize: Iter:  36  G: -351.579948380581925  |grad|_K:  5.085e-07  alpha:  2.087e-01  linmin:  4.754e-06  t[s]:   7194.07
	FillingsUpdate:  mu: -0.059966105  nElectrons: 224.000000  magneticMoment: [ Abs: 1.65954  Tot: -1.38942 ]
	SubspaceRotationAdjust: set factor to 0.972
ElecMinimize: Iter:  37  G: -351.579964851212310  |grad|_K:  4.354e-07  alpha:  3.038e-01  linmin:  7.441e-06  t[s]:   7302.95
	FillingsUpdate:  mu: -0.059701489  nElectrons: 224.000000  magneticMoment: [ Abs: 1.65420  Tot: -1.38661 ]
	SubspaceRotationAdjust: set factor to 1.03
ElecMinimize: Iter:  38  G: -351.579975278315885  |grad|_K:  4.407e-07  alpha:  2.622e-01  linmin:  1.361e-06  t[s]:   7411.88
	FillingsUpdate:  mu: -0.060147317  nElectrons: 224.000000  magneticMoment: [ Abs: 1.64622  Tot: -1.37972 ]
	SubspaceRotationAdjust: set factor to 0.852
ElecMinimize: Iter:  39  G: -351.579980663684807  |grad|_K:  4.206e-07  alpha:  1.311e-01  linmin: -3.739e-06  t[s]:   7520.59
	FillingsUpdate:  mu: -0.059804749  nElectrons: 224.000000  magneticMoment: [ Abs: 1.64107  Tot: -1.37649 ]
	SubspaceRotationAdjust: set factor to 0.894
ElecMinimize: Iter:  40  G: -351.579987378045814  |grad|_K:  3.006e-07  alpha:  1.798e-01  linmin: -2.418e-06  t[s]:   7629.25
	FillingsUpdate:  mu: -0.059793104  nElectrons: 224.000000  magneticMoment: [ Abs: 1.63522  Tot: -1.37209 ]
	SubspaceRotationAdjust: set factor to 0.984
ElecMinimize: Iter:  41  G: -351.579992446529161  |grad|_K:  2.367e-07  alpha:  2.664e-01  linmin:  9.036e-07  t[s]:   7737.23
	FillingsUpdate:  mu: -0.059704278  nElectrons: 224.000000  magneticMoment: [ Abs: 1.63272  Tot: -1.37062 ]
	SubspaceRotationAdjust: set factor to 1.09
ElecMinimize: Iter:  42  G: -351.579995894380090  |grad|_K:  2.054e-07  alpha:  2.930e-01  linmin: -9.945e-07  t[s]:   7846.17
	FillingsUpdate:  mu: -0.059749160  nElectrons: 224.000000  magneticMoment: [ Abs: 1.63152  Tot: -1.36985 ]
	SubspaceRotationAdjust: set factor to 1.32
ElecMinimize: Iter:  43  G: -351.579998372357636  |grad|_K:  1.724e-07  alpha:  2.794e-01  linmin:  1.157e-07  t[s]:   7955.06
	FillingsUpdate:  mu: -0.059609211  nElectrons: 224.000000  magneticMoment: [ Abs: 1.63286  Tot: -1.37122 ]
	SubspaceRotationAdjust: set factor to 1.05
ElecMinimize: Iter:  44  G: -351.579999623141759  |grad|_K:  2.018e-07  alpha:  2.003e-01  linmin: -1.044e-07  t[s]:   8062.94
	FillingsUpdate:  mu: -0.059795358  nElectrons: 224.000000  magneticMoment: [ Abs: 1.63202  Tot: -1.37008 ]
	SubspaceRotationAdjust: set factor to 0.81
ElecMinimize: Iter:  45  G: -351.580000341511493  |grad|_K:  1.485e-07  alpha:  8.393e-02  linmin: -1.460e-07  t[s]:   8169.69
	FillingsUpdate:  mu: -0.059770651  nElectrons: 224.000000  magneticMoment: [ Abs: 1.63336  Tot: -1.37082 ]
	SubspaceRotationAdjust: set factor to 1.09
ElecMinimize: Iter:  46  G: -351.580001479111104  |grad|_K:  1.169e-07  alpha:  2.456e-01  linmin:  3.587e-07  t[s]:   8276.41
	FillingsUpdate:  mu: -0.059673123  nElectrons: 224.000000  magneticMoment: [ Abs: 1.63494  Tot: -1.37193 ]
	SubspaceRotationAdjust: set factor to 1
ElecMinimize: Iter:  47  G: -351.580002148972937  |grad|_K:  1.318e-07  alpha:  2.335e-01  linmin:  7.200e-08  t[s]:   8385.08
	FillingsUpdate:  mu: -0.059793296  nElectrons: 224.000000  magneticMoment: [ Abs: 1.63465  Tot: -1.37124 ]
	SubspaceRotationAdjust: set factor to 0.795
ElecMinimize: Iter:  48  G: -351.580002494875373  |grad|_K:  9.697e-08  alpha:  9.473e-02  linmin: -4.572e-07  t[s]:   8493.53
	FillingsUpdate:  mu: -0.059769878  nElectrons: 224.000000  magneticMoment: [ Abs: 1.63573  Tot: -1.37184 ]
	SubspaceRotationAdjust: set factor to 1
ElecMinimize: Iter:  49  G: -351.580002967614803  |grad|_K:  7.585e-08  alpha:  2.390e-01  linmin: -6.665e-07  t[s]:   8602.02
	FillingsUpdate:  mu: -0.059715749  nElectrons: 224.000000  magneticMoment: [ Abs: 1.63675  Tot: -1.37258 ]
	SubspaceRotationAdjust: set factor to 0.971
ElecMinimize: Iter:  50  G: -351.580003267227426  |grad|_K:  8.242e-08  alpha:  2.478e-01  linmin: -2.422e-07  t[s]:   8710.71
	FillingsUpdate:  mu: -0.059796297  nElectrons: 224.000000  magneticMoment: [ Abs: 1.63649  Tot: -1.37216 ]
	SubspaceRotationAdjust: set factor to 0.749
ElecMinimize: Iter:  51  G: -351.580003412960025  |grad|_K:  6.256e-08  alpha:  1.018e-01  linmin: -4.205e-07  t[s]:   8819.23
	FillingsUpdate:  mu: -0.059775291  nElectrons: 224.000000  magneticMoment: [ Abs: 1.63693  Tot: -1.37256 ]
	SubspaceRotationAdjust: set factor to 0.861
ElecMinimize: Iter:  52  G: -351.580003597084044  |grad|_K:  4.683e-08  alpha:  2.239e-01  linmin:  7.860e-08  t[s]:   8927.78
	FillingsUpdate:  mu: -0.059742550  nElectrons: 224.000000  magneticMoment: [ Abs: 1.63727  Tot: -1.37295 ]
	SubspaceRotationAdjust: set factor to 0.919
ElecMinimize: Iter:  53  G: -351.580003718755506  |grad|_K:  4.710e-08  alpha:  2.639e-01  linmin: -4.984e-07  t[s]:   9036.22
	FillingsUpdate:  mu: -0.059787981  nElectrons: 224.000000  magneticMoment: [ Abs: 1.63698  Tot: -1.37267 ]
	SubspaceRotationAdjust: set factor to 0.76
ElecMinimize: Iter:  54  G: -351.580003778141986  |grad|_K:  4.028e-08  alpha:  1.271e-01  linmin:  2.566e-07  t[s]:   9144.65
	FillingsUpdate:  mu: -0.059763378  nElectrons: 224.000000  magneticMoment: [ Abs: 1.63712  Tot: -1.37294 ]
	SubspaceRotationAdjust: set factor to 0.83
ElecMinimize: Iter:  55  G: -351.580003848252545  |grad|_K:  3.063e-08  alpha:  2.056e-01  linmin: -8.969e-07  t[s]:   9253.26
ElecMinimize: Converged (|Delta G|<1.000000e-07 for 2 iters).
Setting wave functions to eigenvectors of Hamiltonian
Converging empty states (this may take a while): |deigs|: 6.422e-03
Vacuum energy after initial minimize, F = -351.580003848252545

Shifting auxilliary hamiltonian by -0.100437 to set nElectrons=224.000000

-------- Electronic minimization -----------
	Linear fluid (dielectric constant: 78.4, screening length: 8.12261 Bohr) occupying 0.712061 of unit cell:	Completed after 24 iterations at t[s]:   9816.64
	FillingsUpdate:  mu: -0.160200000  nElectrons: 224.000000  magneticMoment: [ Abs: 1.63652  Tot: -1.37234 ]
ElecMinimize: Iter:   0  G: -351.575601627341314  |grad|_K:  2.953e-05  alpha:  1.000e+00
	Linear fluid (dielectric constant: 78.4, screening length: 8.12261 Bohr) occupying 0.713464 of unit cell:	Completed after 24 iterations at t[s]:   9925.50
	Linear fluid (dielectric constant: 78.4, screening length: 8.12261 Bohr) occupying 0.712796 of unit cell:	Completed after 21 iterations at t[s]:   9972.32
ElecMinimize: 	Step increased G by 7.647859e-02, reducing alpha to 2.892603e-02.
	Linear fluid (dielectric constant: 78.4, screening length: 8.12261 Bohr) occupying 0.712262 of unit cell:	Completed after 22 iterations at t[s]:  10063.69
	FillingsUpdate:  mu: -0.160200000  nElectrons: 223.762206  magneticMoment: [ Abs: 1.50839  Tot: -1.22992 ]
	SubspaceRotationAdjust: set factor to 0.437
ElecMinimize: Iter:   1  G: -351.583070325108224  |grad|_K:  1.518e-05  alpha:  2.893e-02  linmin: -1.863e-02  t[s]:  10111.17
	Linear fluid (dielectric constant: 78.4, screening length: 8.12261 Bohr) occupying 0.712417 of unit cell:	Completed after 16 iterations at t[s]:  10161.03
	Linear fluid (dielectric constant: 78.4, screening length: 8.12261 Bohr) occupying 0.712518 of unit cell:	Completed after 15 iterations at t[s]:  10204.57
	FillingsUpdate:  mu: -0.160200000  nElectrons: 223.554600  magneticMoment: [ Abs: 1.40809  Tot: -1.09071 ]
	SubspaceRotationAdjust: set factor to 0.282
ElecMinimize: Iter:   2  G: -351.587273239290766  |grad|_K:  1.008e-05  alpha:  5.400e-02  linmin: -4.372e-03  t[s]:  10251.62
	Linear fluid (dielectric constant: 78.4, screening length: 8.12261 Bohr) occupying 0.712648 of unit cell:	Completed after 13 iterations at t[s]:  10299.90
ElecMinimize: 	Predicted alpha/alphaT>3.000000, increasing alphaT to 1.619962e-01.
	Linear fluid (dielectric constant: 78.4, screening length: 8.12261 Bohr) occupying 0.712853 of unit cell:	Completed after 14 iterations at t[s]:  10342.78
	Linear fluid (dielectric constant: 78.4, screening length: 8.12261 Bohr) occupying 0.712903 of unit cell:	Completed after 9 iterations at t[s]:  10382.44
	FillingsUpdate:  mu: -0.160200000  nElectrons: 223.459708  magneticMoment: [ Abs: 1.43451  Tot: -1.01508 ]
	SubspaceRotationAdjust: set factor to 0.184
ElecMinimize: Iter:   3  G: -351.593254748071558  |grad|_K:  4.688e-06  alpha:  1.923e-01  linmin:  1.727e-04  t[s]:  10429.31
	Linear fluid (dielectric constant: 78.4, screening length: 8.12261 Bohr) occupying 0.713140 of unit cell:	Completed after 7 iterations at t[s]:  10473.61
	Linear fluid (dielectric constant: 78.4, screening length: 8.12261 Bohr) occupying 0.713291 of unit cell:	Completed after 7 iterations at t[s]:  10512.25
	FillingsUpdate:  mu: -0.160200000  nElectrons: 223.422672  magneticMoment: [ Abs: 1.42085  Tot: -0.98072 ]
	SubspaceRotationAdjust: set factor to 0.149
ElecMinimize: Iter:   4  G: -351.595027255375214  |grad|_K:  2.941e-06  alpha:  3.206e-01  linmin: -3.762e-03  t[s]:  10561.48
	Linear fluid (dielectric constant: 78.4, screening length: 8.12261 Bohr) occupying 0.713651 of unit cell:	Completed after 16 iterations at t[s]:  10611.07
	Linear fluid (dielectric constant: 78.4, screening length: 8.12261 Bohr) occupying 0.713799 of unit cell:	Completed after 15 iterations at t[s]:  10654.65
	FillingsUpdate:  mu: -0.160200000  nElectrons: 223.279564  magneticMoment: [ Abs: 1.30449  Tot: -0.86086 ]
	SubspaceRotationAdjust: set factor to 0.101
	SubspaceRotationAdjust: resetting CG because factor has changed by 0.121482
	Linear fluid (dielectric constant: 78.4, screening length: 8.12261 Bohr) occupying 0.713799 of unit cell:	Completed after 0 iterations at t[s]:  10721.98
ElecMinimize: 	State modified externally: resetting search direction.
ElecMinimize: Iter:   5  G: -351.595404093004277  |grad|_K:  5.777e-06  alpha:  4.500e-01
	Linear fluid (dielectric constant: 78.4, screening length: 8.12261 Bohr) occupying 0.714013 of unit cell:	Completed after 17 iterations at t[s]:  10818.94
	Linear fluid (dielectric constant: 78.4, screening length: 8.12261 Bohr) occupying 0.713911 of unit cell:	Completed after 15 iterations at t[s]:  10862.80
	FillingsUpdate:  mu: -0.160200000  nElectrons: 223.316547  magneticMoment: [ Abs: 1.34280  Tot: -0.89908 ]
	SubspaceRotationAdjust: set factor to 0.13
ElecMinimize: Iter:   6  G: -351.596998946836436  |grad|_K:  1.379e-06  alpha:  2.352e-01  linmin:  2.400e-03  t[s]:  10909.43
	Linear fluid (dielectric constant: 78.4, screening length: 8.12261 Bohr) occupying 0.714007 of unit cell:	Completed after 4 iterations at t[s]:  10951.71
ElecMinimize: 	Predicted alpha/alphaT>3.000000, increasing alphaT to 7.054896e-01.
	Linear fluid (dielectric constant: 78.4, screening length: 8.12261 Bohr) occupying 0.714200 of unit cell:	Completed after 5 iterations at t[s]:  10988.91
	Linear fluid (dielectric constant: 78.4, screening length: 8.12261 Bohr) occupying 0.714654 of unit cell:	Completed after 9 iterations at t[s]:  11028.59
	FillingsUpdate:  mu: -0.160200000  nElectrons: 223.251566  magneticMoment: [ Abs: 1.30900  Tot: -0.88569 ]
	SubspaceRotationAdjust: set factor to 0.155
ElecMinimize: Iter:   7  G: -351.597716317272898  |grad|_K:  2.059e-06  alpha:  1.824e+00  linmin:  3.476e-06  t[s]:  11075.30
	Linear fluid (dielectric constant: 78.4, screening length: 8.12261 Bohr) occupying 0.716322 of unit cell:	Completed after 15 iterations at t[s]:  11124.47
	Linear fluid (dielectric constant: 78.4, screening length: 8.12261 Bohr) occupying 0.715259 of unit cell:	Completed after 13 iterations at t[s]:  11166.01
	FillingsUpdate:  mu: -0.160200000  nElectrons: 223.138717  magneticMoment: [ Abs: 1.26566  Tot: -0.89455 ]
	SubspaceRotationAdjust: set factor to 0.22
ElecMinimize: Iter:   8  G: -351.598336282239813  |grad|_K:  1.097e-06  alpha:  6.448e-01  linmin: -2.543e-04  t[s]:  11213.08
	Linear fluid (dielectric constant: 78.4, screening length: 8.12261 Bohr) occupying 0.715320 of unit cell:	Completed after 13 iterations at t[s]:  11260.97
	Linear fluid (dielectric constant: 78.4, screening length: 8.12261 Bohr) occupying 0.715305 of unit cell:	Completed after 9 iterations at t[s]:  11300.54
	FillingsUpdate:  mu: -0.160200000  nElectrons: 223.093119  magneticMoment: [ Abs: 1.24520  Tot: -0.89272 ]
	SubspaceRotationAdjust: set factor to 0.135
ElecMinimize: Iter:   9  G: -351.598460583394058  |grad|_K:  1.157e-06  alpha:  4.799e-01  linmin: -2.530e-05  t[s]:  11349.99
	Linear fluid (dielectric constant: 78.4, screening length: 8.12261 Bohr) occupying 0.715289 of unit cell:	Completed after 10 iterations at t[s]:  11396.04
	Linear fluid (dielectric constant: 78.4, screening length: 8.12261 Bohr) occupying 0.715293 of unit cell:	Completed after 6 iterations at t[s]:  11433.48
	FillingsUpdate:  mu: -0.160200000  nElectrons: 223.080084  magneticMoment: [ Abs: 1.24836  Tot: -0.91020 ]
	SubspaceRotationAdjust: set factor to 0.124
ElecMinimize: Iter:  10  G: -351.598563472501496  |grad|_K:  8.035e-07  alpha:  3.644e-01  linmin:  8.354e-06  t[s]:  11480.16
	Linear fluid (dielectric constant: 78.4, screening length: 8.12261 Bohr) occupying 0.715251 of unit cell:	Completed after 8 iterations at t[s]:  11525.27
	Linear fluid (dielectric constant: 78.4, screening length: 8.12261 Bohr) occupying 0.715222 of unit cell:	Completed after 6 iterations at t[s]:  11562.98
	FillingsUpdate:  mu: -0.160200000  nElectrons: 223.065471  magneticMoment: [ Abs: 1.24259  Tot: -0.91692 ]
	SubspaceRotationAdjust: set factor to 0.146
ElecMinimize: Iter:  11  G: -351.598645743618704  |grad|_K:  6.189e-07  alpha:  6.069e-01  linmin: -1.436e-05  t[s]:  11609.48
	Linear fluid (dielectric constant: 78.4, screening length: 8.12261 Bohr) occupying 0.715162 of unit cell:	Completed after 9 iterations at t[s]:  11654.85
	Linear fluid (dielectric constant: 78.4, screening length: 8.12261 Bohr) occupying 0.715156 of unit cell:	Completed after 2 iterations at t[s]:  11689.84
	FillingsUpdate:  mu: -0.160200000  nElectrons: 223.059344  magneticMoment: [ Abs: 1.23386  Tot: -0.91696 ]
	SubspaceRotationAdjust: set factor to 0.187
ElecMinimize: Iter:  12  G: -351.598699289294075  |grad|_K:  4.460e-07  alpha:  6.618e-01  linmin: -4.250e-05  t[s]:  11738.99
	Linear fluid (dielectric constant: 78.4, screening length: 8.12261 Bohr) occupying 0.715136 of unit cell:	Completed after 7 iterations at t[s]:  11783.05
	Linear fluid (dielectric constant: 78.4, screening length: 8.12261 Bohr) occupying 0.715134 of unit cell:	Completed after 2 iterations at t[s]:  11818.52
	FillingsUpdate:  mu: -0.160200000  nElectrons: 223.067668  magneticMoment: [ Abs: 1.22583  Tot: -0.91360 ]
	SubspaceRotationAdjust: set factor to 0.22
ElecMinimize: Iter:  13  G: -351.598729927878367  |grad|_K:  5.049e-07  alpha:  7.262e-01  linmin:  2.872e-06  t[s]:  11865.35
	Linear fluid (dielectric constant: 78.4, screening length: 8.12261 Bohr) occupying 0.715122 of unit cell:	Completed after 9 iterations at t[s]:  11910.81
	Linear fluid (dielectric constant: 78.4, screening length: 8.12261 Bohr) occupying 0.715125 of unit cell:	Completed after 4 iterations at t[s]:  11947.37
	FillingsUpdate:  mu: -0.160200000  nElectrons: 223.077199  magneticMoment: [ Abs: 1.20931  Tot: -0.90126 ]
	SubspaceRotationAdjust: set factor to 0.224
ElecMinimize: Iter:  14  G: -351.598757795503957  |grad|_K:  4.365e-07  alpha:  5.247e-01  linmin: -8.395e-07  t[s]:  11996.61
	Linear fluid (dielectric constant: 78.4, screening length: 8.12261 Bohr) occupying 0.715125 of unit cell:	Completed after 10 iterations at t[s]:  12042.78
	Linear fluid (dielectric constant: 78.4, screening length: 8.12261 Bohr) occupying 0.715125 of unit cell:	Completed after 3 iterations at t[s]:  12078.75
	FillingsUpdate:  mu: -0.160200000  nElectrons: 223.093554  magneticMoment: [ Abs: 1.20067  Tot: -0.89419 ]
	SubspaceRotationAdjust: set factor to 0.19
ElecMinimize: Iter:  15  G: -351.598775737261860  |grad|_K:  3.262e-07  alpha:  4.462e-01  linmin:  6.922e-05  t[s]:  12125.40
	Linear fluid (dielectric constant: 78.4, screening length: 8.12261 Bohr) occupying 0.715122 of unit cell:	Completed after 4 iterations at t[s]:  12167.76
	Linear fluid (dielectric constant: 78.4, screening length: 8.12261 Bohr) occupying 0.715121 of unit cell:	Completed after 3 iterations at t[s]:  12203.43
	FillingsUpdate:  mu: -0.160200000  nElectrons: 223.099688  magneticMoment: [ Abs: 1.18601  Tot: -0.88351 ]
	SubspaceRotationAdjust: set factor to 0.211
ElecMinimize: Iter:  16  G: -351.598788852712630  |grad|_K:  2.383e-07  alpha:  5.975e-01  linmin: -2.956e-06  t[s]:  12250.12
	Linear fluid (dielectric constant: 78.4, screening length: 8.12261 Bohr) occupying 0.715115 of unit cell:	Completed after 3 iterations at t[s]:  12292.12
	Linear fluid (dielectric constant: 78.4, screening length: 8.12261 Bohr) occupying 0.715115 of unit cell:	Completed after 0 iterations at t[s]:  12325.10
	FillingsUpdate:  mu: -0.160200000  nElectrons: 223.102838  magneticMoment: [ Abs: 1.17572  Tot: -0.87791 ]
	SubspaceRotationAdjust: set factor to 0.228
ElecMinimize: Iter:  17  G: -351.598796761296683  |grad|_K:  2.430e-07  alpha:  6.604e-01  linmin: -1.834e-04  t[s]:  12371.56
	Linear fluid (dielectric constant: 78.4, screening length: 8.12261 Bohr) occupying 0.715106 of unit cell:	Completed after 5 iterations at t[s]:  12414.29
	Linear fluid (dielectric constant: 78.4, screening length: 8.12261 Bohr) occupying 0.715108 of unit cell:	Completed after 2 iterations at t[s]:  12449.15
	FillingsUpdate:  mu: -0.160200000  nElectrons: 223.101107  magneticMoment: [ Abs: 1.16380  Tot: -0.87192 ]
	SubspaceRotationAdjust: set factor to 0.207
ElecMinimize: Iter:  18  G: -351.598803060378714  |grad|_K:  1.802e-07  alpha:  4.953e-01  linmin:  9.631e-05  t[s]:  12495.67
	Linear fluid (dielectric constant: 78.4, screening length: 8.12261 Bohr) occupying 0.715106 of unit cell:	Completed after 3 iterations at t[s]:  12537.28
	Linear fluid (dielectric constant: 78.4, screening length: 8.12261 Bohr) occupying 0.715106 of unit cell:	Completed after 0 iterations at t[s]:  12570.72
	FillingsUpdate:  mu: -0.160200000  nElectrons: 223.102113  magneticMoment: [ Abs: 1.15838  Tot: -0.87078 ]
	SubspaceRotationAdjust: set factor to 0.184
ElecMinimize: Iter:  19  G: -351.598806433705363  |grad|_K:  1.470e-07  alpha:  4.986e-01  linmin: -1.661e-05  t[s]:  12619.72
	Linear fluid (dielectric constant: 78.4, screening length: 8.12261 Bohr) occupying 0.715106 of unit cell:	Completed after 3 iterations at t[s]:  12661.17
	Linear fluid (dielectric constant: 78.4, screening length: 8.12261 Bohr) occupying 0.715106 of unit cell:	Completed after 0 iterations at t[s]:  12694.28
	FillingsUpdate:  mu: -0.160200000  nElectrons: 223.099368  magneticMoment: [ Abs: 1.15118  Tot: -0.86860 ]
	SubspaceRotationAdjust: set factor to 0.214
ElecMinimize: Iter:  20  G: -351.598809078984118  |grad|_K:  1.147e-07  alpha:  5.772e-01  linmin: -1.425e-04  t[s]:  12740.67
	Linear fluid (dielectric constant: 78.4, screening length: 8.12261 Bohr) occupying 0.715109 of unit cell:	Completed after 3 iterations at t[s]:  12782.18
	Linear fluid (dielectric constant: 78.4, screening length: 8.12261 Bohr) occupying 0.715109 of unit cell:	Completed after 0 iterations at t[s]:  12815.50
	FillingsUpdate:  mu: -0.160200000  nElectrons: 223.097147  magneticMoment: [ Abs: 1.14633  Tot: -0.86741 ]
	SubspaceRotationAdjust: set factor to 0.244
ElecMinimize: Iter:  21  G: -351.598810666922361  |grad|_K:  8.310e-08  alpha:  5.532e-01  linmin: -2.160e-05  t[s]:  12861.89
	Linear fluid (dielectric constant: 78.4, screening length: 8.12261 Bohr) occupying 0.715113 of unit cell:	Completed after 2 iterations at t[s]:  12902.90
	Linear fluid (dielectric constant: 78.4, screening length: 8.12261 Bohr) occupying 0.715113 of unit cell:	Completed after 0 iterations at t[s]:  12936.04
	FillingsUpdate:  mu: -0.160200000  nElectrons: 223.096655  magneticMoment: [ Abs: 1.14387  Tot: -0.86731 ]
	SubspaceRotationAdjust: set factor to 0.239
ElecMinimize: Iter:  22  G: -351.598811552597795  |grad|_K:  7.806e-08  alpha:  6.042e-01  linmin: -8.948e-05  t[s]:  12982.43
	Linear fluid (dielectric constant: 78.4, screening length: 8.12261 Bohr) occupying 0.715117 of unit cell:	Completed after 3 iterations at t[s]:  13024.29
	Linear fluid (dielectric constant: 78.4, screening length: 8.12261 Bohr) occupying 0.715115 of unit cell:	Completed after 2 iterations at t[s]:  13059.34
	FillingsUpdate:  mu: -0.160200000  nElectrons: 223.095651  magneticMoment: [ Abs: 1.14183  Tot: -0.86674 ]
	SubspaceRotationAdjust: set factor to 0.211
ElecMinimize: Iter:  23  G: -351.598812017543139  |grad|_K:  5.596e-08  alpha:  3.552e-01  linmin:  4.857e-05  t[s]:  13105.78
	Linear fluid (dielectric constant: 78.4, screening length: 8.12261 Bohr) occupying 0.715117 of unit cell:	Completed after 0 iterations at t[s]:  13145.00
	Linear fluid (dielectric constant: 78.4, screening length: 8.12261 Bohr) occupying 0.715118 of unit cell:	Completed after 2 iterations at t[s]:  13179.77
	FillingsUpdate:  mu: -0.160200000  nElectrons: 223.096165  magneticMoment: [ Abs: 1.14046  Tot: -0.86673 ]
	SubspaceRotationAdjust: set factor to 0.176
ElecMinimize: Iter:  24  G: -351.598812322989488  |grad|_K:  5.480e-08  alpha:  7.214e-01  linmin:  7.215e-04  t[s]:  13226.24
	Linear fluid (dielectric constant: 78.4, screening length: 8.12261 Bohr) occupying 0.715119 of unit cell:	Completed after 2 iterations at t[s]:  13267.44
	Linear fluid (dielectric constant: 78.4, screening length: 8.12261 Bohr) occupying 0.715119 of unit cell:	Completed after 0 iterations at t[s]:  13301.39
	FillingsUpdate:  mu: -0.160200000  nElectrons: 223.095999  magneticMoment: [ Abs: 1.13929  Tot: -0.86626 ]
	SubspaceRotationAdjust: set factor to 0.153
ElecMinimize: Iter:  25  G: -351.598812497720985  |grad|_K:  3.993e-08  alpha:  3.640e-01  linmin:  3.210e-04  t[s]:  13350.51
	Linear fluid (dielectric constant: 78.4, screening length: 8.12261 Bohr) occupying 0.715118 of unit cell:	Completed after 1 iterations at t[s]:  13390.84
	Linear fluid (dielectric constant: 78.4, screening length: 8.12261 Bohr) occupying 0.715118 of unit cell:	Completed after 0 iterations at t[s]:  13423.90
	FillingsUpdate:  mu: -0.160200000  nElectrons: 223.096226  magneticMoment: [ Abs: 1.13900  Tot: -0.86616 ]
	SubspaceRotationAdjust: set factor to 0.138
ElecMinimize: Iter:  26  G: -351.598812562338310  |grad|_K:  3.123e-08  alpha:  2.604e-01  linmin: -4.618e-04  t[s]:  13470.38
	Linear fluid (dielectric constant: 78.4, screening length: 8.12261 Bohr) occupying 0.715118 of unit cell:	Completed after 0 iterations at t[s]:  13509.74
	Linear fluid (dielectric constant: 78.4, screening length: 8.12261 Bohr) occupying 0.715117 of unit cell:	Completed after 1 iterations at t[s]:  13543.93
	FillingsUpdate:  mu: -0.160200000  nElectrons: 223.096281  magneticMoment: [ Abs: 1.13826  Tot: -0.86566 ]
	SubspaceRotationAdjust: set factor to 0.151
ElecMinimize: Iter:  27  G: -351.598812648087005  |grad|_K:  2.724e-08  alpha:  5.608e-01  linmin:  9.145e-04  t[s]:  13590.37
ElecMinimize: Converged (|Delta G|<1.000000e-07 for 2 iters).
Setting wave functions to eigenvectors of Hamiltonian
Converging empty states (this may take a while): |deigs|: 1.318e-03
Single-point solvation energy estimate, DeltaG = -0.018808799834460

Computing DFT-D3 correction:
# coordination-number C 3.299 3.321 3.333 3.331 3.312 3.289 3.314 3.503 3.327 3.312 3.301 3.334 3.299 3.299 3.321 3.722 3.266 3.301 3.318 3.332 3.326 3.303 3.299 3.327 3.333 3.318 3.299 3.266 3.503 3.321 3.301 3.303 3.314 3.299 3.312 3.326 3.723 3.334 3.290 3.312 3.331 3.332 3.321 3.301 2.022
# coordination-number N 3.165 3.182 3.165 3.182
# coordination-number Ti 5.625
# coordination-number O 1.058 1.014
# diagonal-C6 C 24.29 24.07 23.94 23.97 24.17 24.38 24.15 21.60 24.01 24.16 24.27 23.93 24.29 24.29 24.07 19.15 24.58 24.28 24.10 23.95 24.02 24.25 24.29 24.01 23.94 24.10 24.29 24.58 21.59 24.07 24.28 24.25 24.14 24.29 24.17 24.02 19.15 23.93 24.38 24.16 23.97 23.95 24.07 24.27 29.45
# diagonal-C6 N 15.60 15.60 15.60 15.60
# diagonal-C6 Ti 321.59
# diagonal-C6 O 12.76 12.80
EvdW_6 =   -0.038232
EvdW_8 =   -0.030604

# Ionic positions in cartesian coordinates:
ion C   0.102018000000000   0.054981000000000   0.013080000000000 1
ion C  -2.290880000000000   3.987420000000001   0.034667000000000 1
ion C  -4.635181000000000   7.989731000000001  43.194409000000007 1
ion C  -6.942704000000000  12.008148000000000  43.170262000000008 1
ion C  -9.270379999999999  16.023592000000001  43.216953000000004 1
ion C   4.782713000000000   0.150698000000000   0.040830000000000 1
ion C   2.394531000000000   4.184178000000001   0.223667000000000 1
ion C  -0.019252000000000   7.985263000000001   0.233902000000000 1
ion C  -2.324134000000001  11.991959000000003   0.043575000000000 1
ion C  -4.620559000000001  16.022836000000005  43.245156000000009 1
ion C   9.476884000000000   0.035462000000000  43.253278000000009 1
ion C   7.178662000000001   4.137810000000001   0.072855000000000 1
ion C   0.078265000000000  15.912576000000001   0.093024000000000 1
ion C   2.442899999999998  19.888303000000004   0.017416000000000 1
ion C  11.854792000000002   3.991828000000001  43.218239000000004 1
ion C   9.566872999999999   7.986128000000001   0.031986000000000 1
ion C   4.771256999999999  15.793113000000004   0.143409000000000 1
ion C   7.095977000000001  19.898321000000003   0.006307000000000 1
ion C  16.498858999999999   3.977630000000001  43.204648000000006 1
ion C  14.191642000000002   8.002222000000000  43.171556000000010 1
ion C  11.878304000000000  12.008756000000000  43.217459000000005 1
ion C   9.476290999999996  15.949678000000004  43.241506000000008 1
ion C   0.088670000000000   2.743224000000001   0.079830000000000 1
ion C  -2.319755000000001   6.659806000000001   0.036804000000000 1
ion C  -4.637293000000000  10.658431000000002  43.196910000000010 1
ion C  -6.945562000000001  14.685020000000003  43.205400000000004 1
ion C  -9.274248000000000  18.712831000000005   0.007419000000000 1
ion C   4.781191000000000   2.869896000000000   0.132829000000000 1
ion C  -0.021737000000000  10.669854000000003   0.237991000000000 1
ion C  -2.299231999999998  14.664428000000001   0.044541000000000 1
ion C  -4.621228000000003  18.709857000000003   0.005723000000000 1
ion C   9.486299000000002   2.720604000000000  43.241639000000006 1
ion C   2.386332000000001  14.475375000000001   0.235712000000000 1
ion C   0.087619000000000  18.600753000000005   0.024298000000000 1
ion C  14.176076000000002   2.635562000000000  43.221242000000004 1
ion C  11.882204000000002   6.664948000000001  43.216850000000008 1
ion C   9.565118000000000  10.684214000000003   0.032852000000000 1
ion C   7.170942999999999  14.529368000000003   0.077745000000000 1
ion C   4.768560000000001  18.512199000000003   0.049939000000000 1
ion C  18.825952000000004   2.643392000000000  43.241180000000007 1
ion C  16.497658000000001   6.654476000000002  43.168143000000008 1
ion C  14.189681000000002  10.674856000000004  43.172076000000004 1
ion C  11.846678999999998  14.681834000000002  43.216629000000005 1
ion C   9.462672000000001  18.634692000000005  43.249212000000007 1
ion C   3.373545000000001   9.313461000000002   8.112822000000001 1
ion N   2.273520000000000  11.868275000000002   0.471186000000000 1
ion N   7.279760000000000  11.929746000000002   0.170554000000000 1
ion N   2.278213000000000   6.790718000000001   0.464048000000000 1
ion N   7.282954000000002   6.737880000000001   0.167931000000000 1
ion Ti   5.016645999999999   9.333270000000002   1.741461000000000 1
ion O   5.510458000000000   9.310154000000002   7.482508000000002 1
ion O   1.230734000000000   9.316536000000003   8.620830000000002 1

# Forces in Cartesian coordinates:
force C   0.000064218686367   0.000011578085909   0.000065717240010 1
force C   0.000050013981811   0.000001813767918   0.000162070116238 1
force C   0.000061543000545   0.000003834812956   0.000086093314308 1
force C   0.000075298175248   0.000007331339295   0.000023784412300 1
force C   0.000065393284693   0.000027844862795  -0.000012413787523 1
force C   0.000063238978981   0.000049667168967   0.000020664406811 1
force C   0.000091769739752   0.000105199531431   0.000345316906096 1
force C   0.000061662262617   0.000015451181841   0.000452305631825 1
force C   0.000050047257773   0.000025642667594   0.000148508110902 1
force C   0.000073630645660   0.000029563493566   0.000013186840037 1
force C   0.000050057410236   0.000035042197783  -0.000025717799694 1
force C   0.000022200499548   0.000135439608370  -0.000036985132687 1
force C   0.000070523395164  -0.000019220957485   0.000121086210793 1
force C   0.000069810244932  -0.000018217172796  -0.000045176685184 1
force C   0.000081053424694   0.000006429221984  -0.000042233404668 1
force C   0.000095950485013   0.000012903624458   0.000012455931307 1
force C   0.000059217484722  -0.000047800509780  -0.000014808490823 1
force C   0.000060428902013  -0.000017078091047  -0.000037001471615 1
force C   0.000067081939643  -0.000015328380115   0.000012875626846 1
force C   0.000095771146781  -0.000000246195885   0.000042138400184 1
force C   0.000116157648067   0.000034469227201  -0.000019498752805 1
force C   0.000042586732165  -0.000046798782583  -0.000072653204762 1
force C   0.000075077773030   0.000036547996010   0.000211635290522 1
force C   0.000051990666133  -0.000009133325964   0.000197238273769 1
force C   0.000061285533733   0.000007252628419   0.000065000056200 1
force C   0.000065993920018   0.000027819370675   0.000005932906288 1
force C   0.000073413315024   0.000033528222241   0.000031132435761 1
force C   0.000061082274903   0.000067524851652   0.000087087325097 1
force C   0.000059854073517   0.000006004304223   0.000424671025297 1
force C   0.000046311614295   0.000013590161245   0.000097683920332 1
force C   0.000056952895012   0.000033541949512  -0.000012676159156 1
force C   0.000039730866483   0.000064139133412  -0.000044431578661 1
force C   0.000087914810936  -0.000083167368212   0.000252688118813 1
force C   0.000058917308657   0.000005207897105  -0.000007179421295 1
force C   0.000063811099965  -0.000013299361875  -0.000038140101653 1
force C   0.000115352816735  -0.000019921263776   0.000000492788802 1
force C   0.000097292541811   0.000005404965531  -0.000002537496020 1
force C   0.000021377116569  -0.000113017889360  -0.000104423782468 1
force C   0.000062901138788  -0.000030550061065  -0.000065816188347 1
force C   0.000078016744240  -0.000013786398256   0.000032200126138 1
force C   0.000075229864307   0.000003750190364   0.000046130924997 1
force C   0.000095744585814   0.000010438598987   0.000030967113156 1
force C   0.000083028842401   0.000008334852235  -0.000051928015045 1
force C   0.000054640376538  -0.000017435347895  -0.000018298931795 1
force C  -0.001084166084225  -0.000048591525360  -0.001508930237033 1
force N   0.000060533617797  -0.000107203441488   0.000686858810486 1
force N   0.000119388574981  -0.000143143163038   0.000005051055639 1
force N   0.000065330613388   0.000137684728764   0.000738147168747 1
force N   0.000114688134146   0.000171863834537   0.000054736166705 1
force Ti   0.000278296749491   0.000021592117362   0.000809976888628 1
force O  -0.002822268638959  -0.000085996259045  -0.006861249562039 1
force O  -0.000260244091114  -0.000029547226032   0.003488078840059 1

# Energy components:
   A_diel =        0.0286386905667823
   Eewald =     1589.1796742282674586
       EH =     1889.3472662492370091
     Eloc =    -4010.1479396369722963
      Enl =       52.6605137007521549
     EvdW =       -0.0688365477868013
      Exc =     -108.5181354751540823
 Exc_core =        3.3094969696144938
       KE =      196.8609148195399996
  MuShift =        0.0099307385803801
-------------------------------------
     Etot =     -387.3384762633548348
       TS =        0.0003606216678888
-------------------------------------
        F =     -387.3388368850227153
      muN =      -35.7400242369357315
-------------------------------------
        G =     -351.5988126480870051


Dumping 'jdft.fillings' ... done
Dumping 'jdft.wfns' ... done
Dumping 'jdft.fluidState' ... done
Dumping 'jdft.ionpos' ... done
Dumping 'jdft.lattice' ... done
Dumping 'jdft.eigenvals' ... done
Dumping 'jdft.eigStats' ... 
	eMin: -2.295829 at state 9 ( [ +0.000000 +0.000000 +0.000000 ] spin -1 )
	HOMO: -0.160302 at state 4 ( [ +0.333333 +0.333333 +0.000000 ] spin 1 )
	mu  : -0.160200
	LUMO: -0.157894 at state 17 ( [ -0.333333 -0.333333 +0.000000 ] spin -1 )
	eMax: +0.009192 at state 0 ( [ +0.000000 +0.000000 +0.000000 ] spin 1 )
	HOMO-LUMO gap: +0.002409
	Optical gap  : +0.010777 at state 17 ( [ -0.333333 -0.333333 +0.000000 ] spin -1 )
Dumping 'jdft.Ecomponents' ... done
IonicMinimize: Iter:   0  G: -351.598812648087005  |grad|_K:  6.873e-04  t[s]:  14393.93
IonicMinimize: None of the convergence criteria satisfied after 0 iterations.

#--- Lowdin population analysis ---
# oxidation-state C +0.050 +0.062 +0.049 +0.055 +0.047 +0.051 +0.172 +0.144 +0.037 +0.046 +0.050 +0.175 +0.038 +0.054 +0.062 +0.126 +0.012 +0.054 +0.048 +0.051 +0.039 +0.036 +0.038 +0.037 +0.049 +0.048 +0.054 +0.012 +0.144 +0.062 +0.054 +0.036 +0.172 +0.050 +0.047 +0.039 +0.126 +0.175 +0.051 +0.046 +0.055 +0.051 +0.062 +0.050 +0.810
# magnetic-moments C +0.000 -0.005 -0.001 -0.001 +0.001 -0.001 -0.012 -0.006 +0.000 +0.000 -0.000 -0.012 +0.003 -0.000 -0.002 +0.000 +0.011 -0.001 +0.002 +0.003 -0.005 -0.004 +0.003 +0.000 -0.002 +0.002 -0.000 +0.011 -0.006 -0.005 -0.001 -0.004 -0.012 -0.000 +0.000 -0.005 +0.000 -0.012 -0.001 -0.000 -0.001 +0.002 -0.002 -0.000 -0.001
# oxidation-state N -0.303 -0.294 -0.303 -0.294
# magnetic-moments N +0.022 +0.022 +0.022 +0.022
# oxidation-state Ti +1.395
# magnetic-moments Ti -0.867
# oxidation-state O -0.301 -0.235
# magnetic-moments O +0.000 -0.001


Dumping 'jdft.n_up' ... done
Dumping 'jdft.n_dn' ... done
Dumping 'jdft.tau_up' ... done
Dumping 'jdft.tau_dn' ... done
Dumping 'jdft.eigenvals' ... done
Dumping 'jdft.eigStats' ... 
	eMin: -2.295829 at state 9 ( [ +0.000000 +0.000000 +0.000000 ] spin -1 )
	HOMO: -0.160302 at state 4 ( [ +0.333333 +0.333333 +0.000000 ] spin 1 )
	mu  : -0.160200
	LUMO: -0.157894 at state 17 ( [ -0.333333 -0.333333 +0.000000 ] spin -1 )
	eMax: +0.009192 at state 0 ( [ +0.000000 +0.000000 +0.000000 ] spin 1 )
	HOMO-LUMO gap: +0.002409
	Optical gap  : +0.010777 at state 17 ( [ -0.333333 -0.333333 +0.000000 ] spin -1 )
Dumping 'jdft.kPts' ... done
Dumping 'jdft.dosUp' ... done.
Dumping 'jdft.dosDn' ... done.
End date and time: Tue Mar 14 17:35:37 2023  (Duration: 0-4:01:06.45)
Done!

PROFILER:             augmentDensityGrid     0.869661 +/-     1.042571 s,  904 calls,    786.173988 s total
PROFILER:         augmentDensityGridGrad     0.491618 +/-     0.492595 s,  460 calls,    226.144094 s total
PROFILER:        augmentDensitySpherical     0.000284 +/-     0.000345 s,  904 calls,      0.257166 s total
PROFILER:    augmentDensitySphericalGrad     0.000241 +/-     0.000305 s,  668 calls,      0.160839 s total
PROFILER:                 augmentOverlap     1.546182 +/-     2.098829 s, 1784 calls,   2758.388649 s total
PROFILER:        ColumnBundle::randomize     0.005153 +/-     0.000000 s,    1 calls,      0.005153 s total
PROFILER:                     diagouterI    15.264326 +/-     3.297138 s,  229 calls,   3495.530575 s total
PROFILER:              EdensityAndVscloc     3.591103 +/-     5.162849 s,  227 calls,    815.180276 s total
PROFILER:                     EnlAndGrad     0.000901 +/-     0.001379 s,  912 calls,      0.821970 s total
PROFILER:            ExCorrCommunication     0.064861 +/-     0.106458 s, 1375 calls,     89.184527 s total
PROFILER:               ExCorrFunctional     0.023033 +/-     0.002573 s,  231 calls,      5.320641 s total
PROFILER:                    ExCorrTotal     0.649813 +/-     0.226246 s,  231 calls,    150.106739 s total
PROFILER:                   Idag_DiagV_I    22.568720 +/-    13.146098 s,  166 calls,   3746.407484 s total
PROFILER:                    initWeights     1.824640 +/-     0.000000 s,    1 calls,      1.824640 s total
PROFILER:                    inv(matrix)     0.001517 +/-     0.000086 s,  171 calls,      0.259358 s total
PROFILER:            matrix::diagonalize     0.006681 +/-     0.004038 s,  389 calls,      2.598826 s total
PROFILER:                    matrix::set     0.000002 +/-     0.000002 s, 21014 calls,      0.037589 s total
PROFILER:            orthoMatrix(matrix)     0.000864 +/-     0.000400 s,  223 calls,      0.192603 s total
PROFILER:     RadialFunctionR::transform     0.004105 +/-     0.018267 s,  141 calls,      0.578755 s total
PROFILER:                    reduceKmesh     0.000000 +/-     0.000000 s,    1 calls,      0.000000 s total
PROFILER:   VanDerWaalsD3::energyAndGrad     0.030246 +/-     0.000498 s,    3 calls,      0.090739 s total
PROFILER:               WavefunctionDrag    14.202425 +/-     0.000000 s,    1 calls,     14.202425 s total
PROFILER:                            Y*M     0.671935 +/-     0.812912 s, 3391 calls,   2278.532649 s total
PROFILER:                          Y1^Y2     0.657998 +/-     0.834031 s, 2378 calls,   1564.719130 s total

MEMUSAGE:                   ColumnBundle     1.333771 GB
MEMUSAGE:        complexScalarFieldTilde     0.024719 GB
MEMUSAGE:                    IndexArrays     0.023178 GB
MEMUSAGE:                         matrix     0.020674 GB
MEMUSAGE:                           misc     0.050872 GB
MEMUSAGE:                    ScalarField     0.358429 GB
MEMUSAGE:               ScalarFieldTilde     0.262436 GB
MEMUSAGE:                          Total     1.613345 GB
