
*************** JDFTx 1.7.0 (git hash 5f12716a) ***************

Start date and time: Wed Nov  9 13:08:50 2022
Executable /home/nisi6161/jdftx_alpine/build/jdftx with command-line: -i in
Running on hosts (process indices):  c3cpu-c11-u15-1.rc.int.colorado.edu (0-17)
Divided in process groups (process indices):  0 (0)  1 (1)  2 (2)  3 (3)  4 (4)  5 (5)  6 (6)  7 (7)  8 (8)  9 (9)  10 (10)  11 (11)  12 (12)  13 (13)  14 (14)  15 (15)  16 (16)  17 (17)
Resource initialization completed at t[s]:      0.01
Run totals: 18 processes, 32 threads, 0 GPUs


Input parsed successfully to the following command list (including defaults):

basis kpoint-dependent
converge-empty-states yes
coords-type Cartesian
core-overlap-check none
coulomb-interaction Periodic
davidson-band-ratio 1.1
density-of-states Etol 1.000000e-06 Esigma 1.000000e-03 \
		Complete \
	Total \
	OrthoOrbital C 1   s \
	OrthoOrbital C 1   p \
	OrthoOrbital C 1   px \
	OrthoOrbital C 1   py \
	OrthoOrbital C 1   pz \
	OrthoOrbital C 2   s \
	OrthoOrbital C 2   p \
	OrthoOrbital C 2   px \
	OrthoOrbital C 2   py \
	OrthoOrbital C 2   pz \
	OrthoOrbital C 3   s \
	OrthoOrbital C 3   p \
	OrthoOrbital C 3   px \
	OrthoOrbital C 3   py \
	OrthoOrbital C 3   pz \
	OrthoOrbital C 4   s \
	OrthoOrbital C 4   p \
	OrthoOrbital C 4   px \
	OrthoOrbital C 4   py \
	OrthoOrbital C 4   pz \
	OrthoOrbital C 5   s \
	OrthoOrbital C 5   p \
	OrthoOrbital C 5   px \
	OrthoOrbital C 5   py \
	OrthoOrbital C 5   pz \
	OrthoOrbital C 6   s \
	OrthoOrbital C 6   p \
	OrthoOrbital C 6   px \
	OrthoOrbital C 6   py \
	OrthoOrbital C 6   pz \
	OrthoOrbital C 7   s \
	OrthoOrbital C 7   p \
	OrthoOrbital C 7   px \
	OrthoOrbital C 7   py \
	OrthoOrbital C 7   pz \
	OrthoOrbital C 8   s \
	OrthoOrbital C 8   p \
	OrthoOrbital C 8   px \
	OrthoOrbital C 8   py \
	OrthoOrbital C 8   pz \
	OrthoOrbital C 9   s \
	OrthoOrbital C 9   p \
	OrthoOrbital C 9   px \
	OrthoOrbital C 9   py \
	OrthoOrbital C 9   pz \
	OrthoOrbital C 10   s \
	OrthoOrbital C 10   p \
	OrthoOrbital C 10   px \
	OrthoOrbital C 10   py \
	OrthoOrbital C 10   pz \
	OrthoOrbital C 11   s \
	OrthoOrbital C 11   p \
	OrthoOrbital C 11   px \
	OrthoOrbital C 11   py \
	OrthoOrbital C 11   pz \
	OrthoOrbital C 12   s \
	OrthoOrbital C 12   p \
	OrthoOrbital C 12   px \
	OrthoOrbital C 12   py \
	OrthoOrbital C 12   pz \
	OrthoOrbital C 13   s \
	OrthoOrbital C 13   p \
	OrthoOrbital C 13   px \
	OrthoOrbital C 13   py \
	OrthoOrbital C 13   pz \
	OrthoOrbital C 14   s \
	OrthoOrbital C 14   p \
	OrthoOrbital C 14   px \
	OrthoOrbital C 14   py \
	OrthoOrbital C 14   pz \
	OrthoOrbital C 15   s \
	OrthoOrbital C 15   p \
	OrthoOrbital C 15   px \
	OrthoOrbital C 15   py \
	OrthoOrbital C 15   pz \
	OrthoOrbital C 16   s \
	OrthoOrbital C 16   p \
	OrthoOrbital C 16   px \
	OrthoOrbital C 16   py \
	OrthoOrbital C 16   pz \
	OrthoOrbital C 17   s \
	OrthoOrbital C 17   p \
	OrthoOrbital C 17   px \
	OrthoOrbital C 17   py \
	OrthoOrbital C 17   pz \
	OrthoOrbital C 18   s \
	OrthoOrbital C 18   p \
	OrthoOrbital C 18   px \
	OrthoOrbital C 18   py \
	OrthoOrbital C 18   pz \
	OrthoOrbital C 19   s \
	OrthoOrbital C 19   p \
	OrthoOrbital C 19   px \
	OrthoOrbital C 19   py \
	OrthoOrbital C 19   pz \
	OrthoOrbital C 20   s \
	OrthoOrbital C 20   p \
	OrthoOrbital C 20   px \
	OrthoOrbital C 20   py \
	OrthoOrbital C 20   pz \
	OrthoOrbital C 21   s \
	OrthoOrbital C 21   p \
	OrthoOrbital C 21   px \
	OrthoOrbital C 21   py \
	OrthoOrbital C 21   pz \
	OrthoOrbital C 22   s \
	OrthoOrbital C 22   p \
	OrthoOrbital C 22   px \
	OrthoOrbital C 22   py \
	OrthoOrbital C 22   pz \
	OrthoOrbital C 23   s \
	OrthoOrbital C 23   p \
	OrthoOrbital C 23   px \
	OrthoOrbital C 23   py \
	OrthoOrbital C 23   pz \
	OrthoOrbital C 24   s \
	OrthoOrbital C 24   p \
	OrthoOrbital C 24   px \
	OrthoOrbital C 24   py \
	OrthoOrbital C 24   pz \
	OrthoOrbital C 25   s \
	OrthoOrbital C 25   p \
	OrthoOrbital C 25   px \
	OrthoOrbital C 25   py \
	OrthoOrbital C 25   pz \
	OrthoOrbital C 26   s \
	OrthoOrbital C 26   p \
	OrthoOrbital C 26   px \
	OrthoOrbital C 26   py \
	OrthoOrbital C 26   pz \
	OrthoOrbital C 27   s \
	OrthoOrbital C 27   p \
	OrthoOrbital C 27   px \
	OrthoOrbital C 27   py \
	OrthoOrbital C 27   pz \
	OrthoOrbital C 28   s \
	OrthoOrbital C 28   p \
	OrthoOrbital C 28   px \
	OrthoOrbital C 28   py \
	OrthoOrbital C 28   pz \
	OrthoOrbital C 29   s \
	OrthoOrbital C 29   p \
	OrthoOrbital C 29   px \
	OrthoOrbital C 29   py \
	OrthoOrbital C 29   pz \
	OrthoOrbital C 30   s \
	OrthoOrbital C 30   p \
	OrthoOrbital C 30   px \
	OrthoOrbital C 30   py \
	OrthoOrbital C 30   pz \
	OrthoOrbital C 31   s \
	OrthoOrbital C 31   p \
	OrthoOrbital C 31   px \
	OrthoOrbital C 31   py \
	OrthoOrbital C 31   pz \
	OrthoOrbital C 32   s \
	OrthoOrbital C 32   p \
	OrthoOrbital C 32   px \
	OrthoOrbital C 32   py \
	OrthoOrbital C 32   pz \
	OrthoOrbital C 33   s \
	OrthoOrbital C 33   p \
	OrthoOrbital C 33   px \
	OrthoOrbital C 33   py \
	OrthoOrbital C 33   pz \
	OrthoOrbital C 34   s \
	OrthoOrbital C 34   p \
	OrthoOrbital C 34   px \
	OrthoOrbital C 34   py \
	OrthoOrbital C 34   pz \
	OrthoOrbital C 35   s \
	OrthoOrbital C 35   p \
	OrthoOrbital C 35   px \
	OrthoOrbital C 35   py \
	OrthoOrbital C 35   pz \
	OrthoOrbital C 36   s \
	OrthoOrbital C 36   p \
	OrthoOrbital C 36   px \
	OrthoOrbital C 36   py \
	OrthoOrbital C 36   pz \
	OrthoOrbital C 37   s \
	OrthoOrbital C 37   p \
	OrthoOrbital C 37   px \
	OrthoOrbital C 37   py \
	OrthoOrbital C 37   pz \
	OrthoOrbital C 38   s \
	OrthoOrbital C 38   p \
	OrthoOrbital C 38   px \
	OrthoOrbital C 38   py \
	OrthoOrbital C 38   pz \
	OrthoOrbital C 39   s \
	OrthoOrbital C 39   p \
	OrthoOrbital C 39   px \
	OrthoOrbital C 39   py \
	OrthoOrbital C 39   pz \
	OrthoOrbital C 40   s \
	OrthoOrbital C 40   p \
	OrthoOrbital C 40   px \
	OrthoOrbital C 40   py \
	OrthoOrbital C 40   pz \
	OrthoOrbital C 41   s \
	OrthoOrbital C 41   p \
	OrthoOrbital C 41   px \
	OrthoOrbital C 41   py \
	OrthoOrbital C 41   pz \
	OrthoOrbital C 42   s \
	OrthoOrbital C 42   p \
	OrthoOrbital C 42   px \
	OrthoOrbital C 42   py \
	OrthoOrbital C 42   pz \
	OrthoOrbital C 43   s \
	OrthoOrbital C 43   p \
	OrthoOrbital C 43   px \
	OrthoOrbital C 43   py \
	OrthoOrbital C 43   pz \
	OrthoOrbital C 44   s \
	OrthoOrbital C 44   p \
	OrthoOrbital C 44   px \
	OrthoOrbital C 44   py \
	OrthoOrbital C 44   pz \
	OrthoOrbital C 45   s \
	OrthoOrbital C 45   p \
	OrthoOrbital C 45   px \
	OrthoOrbital C 45   py \
	OrthoOrbital C 45   pz \
	OrthoOrbital N 1   s \
	OrthoOrbital N 1   p \
	OrthoOrbital N 1   px \
	OrthoOrbital N 1   py \
	OrthoOrbital N 1   pz \
	OrthoOrbital N 2   s \
	OrthoOrbital N 2   p \
	OrthoOrbital N 2   px \
	OrthoOrbital N 2   py \
	OrthoOrbital N 2   pz \
	OrthoOrbital N 3   s \
	OrthoOrbital N 3   p \
	OrthoOrbital N 3   px \
	OrthoOrbital N 3   py \
	OrthoOrbital N 3   pz \
	OrthoOrbital N 4   s \
	OrthoOrbital N 4   p \
	OrthoOrbital N 4   px \
	OrthoOrbital N 4   py \
	OrthoOrbital N 4   pz \
	OrthoOrbital Ti 1   s \
	OrthoOrbital Ti 1   p \
	OrthoOrbital Ti 1   px \
	OrthoOrbital Ti 1   py \
	OrthoOrbital Ti 1   pz \
	OrthoOrbital Ti 1   d \
	OrthoOrbital Ti 1   dxy \
	OrthoOrbital Ti 1   dyz \
	OrthoOrbital Ti 1   dz2 \
	OrthoOrbital Ti 1   dxz \
	OrthoOrbital Ti 1   dx2-y2 \
	OrthoOrbital O 1   s \
	OrthoOrbital O 1   p \
	OrthoOrbital O 1   px \
	OrthoOrbital O 1   py \
	OrthoOrbital O 1   pz \
	OrthoOrbital O 2   s \
	OrthoOrbital O 2   p \
	OrthoOrbital O 2   px \
	OrthoOrbital O 2   py \
	OrthoOrbital O 2   pz \
	OrthoOrbital O 3   s \
	OrthoOrbital O 3   p \
	OrthoOrbital O 3   px \
	OrthoOrbital O 3   py \
	OrthoOrbital O 3   pz \
	OrthoOrbital H 1   s \
	OrthoOrbital H 2   s \
	OrthoOrbital H 3   s
dump End ElecDensity KEdensity BandEigs EigStats RhoAtom DOS Kpoints
dump Ionic State IonicPositions Lattice EigStats Ecomponents
dump 
dump 
dump 
dump 
dump 
dump 
dump 
dump 
dump-name jdft.$VAR
elec-cutoff 20
elec-eigen-algo Davidson
elec-ex-corr gga-PBE
elec-initial-magnetization 0.000000 no
elec-n-bands 140
elec-smearing Fermi 0.001
electronic-minimize  \
	dirUpdateScheme      FletcherReeves \
	linminMethod         DirUpdateRecommended \
	nIterations          100 \
	history              15 \
	knormThreshold       0 \
	energyDiffThreshold  1e-07 \
	nEnergyDiff          2 \
	alphaTstart          1 \
	alphaTmin            1e-10 \
	updateTestStepSize   yes \
	alphaTreduceFactor   0.1 \
	alphaTincreaseFactor 3 \
	nAlphaAdjustMax      3 \
	wolfeEnergy          0.0001 \
	wolfeGradient        0.9 \
	fdTest               no
exchange-regularization WignerSeitzTruncated
fluid LinearPCM 298.000000 1.013250
fluid-anion F- 0.5 MeanFieldLJ \
	epsBulk 1 \
	pMol 0 \
	epsInf 1 \
	Pvap 0 \
	sigmaBulk 0 \
	Rvdw 2.24877 \
	Res 0 \
	tauNuc 343133
fluid-cation Na+ 0.5 MeanFieldLJ \
	epsBulk 1 \
	pMol 0 \
	epsInf 1 \
	Pvap 0 \
	sigmaBulk 0 \
	Rvdw 2.19208 \
	Res 0 \
	tauNuc 343133
fluid-ex-corr lda-TF lda-PZ
fluid-gummel-loop 10 1.000000e-05
fluid-minimize  \
	dirUpdateScheme      PolakRibiere \
	linminMethod         DirUpdateRecommended \
	nIterations          400 \
	history              15 \
	knormThreshold       1e-11 \
	energyDiffThreshold  0 \
	nEnergyDiff          2 \
	alphaTstart          1 \
	alphaTmin            1e-10 \
	updateTestStepSize   yes \
	alphaTreduceFactor   0.1 \
	alphaTincreaseFactor 3 \
	nAlphaAdjustMax      6 \
	wolfeEnergy          0.0001 \
	wolfeGradient        0.9 \
	fdTest               no
fluid-solvent H2O 55.338 ScalarEOS \
	epsBulk 78.4 \
	pMol 0.92466 \
	epsInf 1.77 \
	Pvap 1.06736e-10 \
	sigmaBulk 4.62e-05 \
	Rvdw 2.61727 \
	Res 1.42 \
	tauNuc 343133 \
	poleEl 15 7 1
forces-output-coords Positions
ion C   0.055985000000000   0.036034000000000   0.092958000000000 0
ion C  -2.333534000000001   3.975851000000000   0.071503000000000 0
ion C  -4.679442000000001   7.980222000000001  43.212581000000007 0
ion C  -6.989537000000001  11.998566000000002  43.211543000000006 0
ion C  -9.318187000000002  16.007957999999999   0.048923000000000 0
ion C   4.739342000000000   0.137988000000000   0.108833000000000 0
ion C   2.349360000000000   4.160799000000001   0.227788000000000 0
ion C  -0.067570000000001   7.981788000000002   0.182585000000000 0
ion C  -2.374198000000001  11.986189000000001   0.051821000000000 0
ion C  -4.667567000000001  16.013563000000005   0.048058000000000 0
ion C   9.433502000000001   0.027752000000000   0.042607000000000 0
ion C   7.147546000000000   4.136652000000000   0.105805000000000 0
ion C   0.027721000000000  15.914042000000002   0.126438000000000 0
ion C   2.403550999999998  19.878705000000004   0.073492000000000 0
ion C  11.817614000000003   3.979813000000001  43.226899000000010 0
ion C   9.528904000000001   7.968626000000002   0.031966000000000 0
ion C   4.725802000000000  15.779450000000002   0.231551000000000 0
ion C   7.052904000000002  19.885547000000003   0.092222000000000 0
ion C  16.459869999999999   3.966598000000001  43.240222000000010 0
ion C  14.152923000000001   7.989753000000003  43.176635000000005 0
ion C  11.830045000000000  11.990571000000003   0.015745000000000 0
ion C   9.425984000000000  15.929119000000002   0.100268000000000 0
ion C   0.043998000000000   2.719954000000000   0.121983000000000 0
ion C  -2.365060000000000   6.650179000000001   0.044467000000000 0
ion C  -4.684281000000002  10.649483000000004  43.219502000000006 0
ion C  -6.991861000000002  14.672797000000001   0.014664000000000 0
ion C  -9.316808000000004  18.696896000000006   0.091790000000000 0
ion C   4.741118000000001   2.859087000000001   0.174972000000000 0
ion C  -0.066621000000000  10.666116000000002   0.181417000000000 0
ion C  -2.347364000000001  14.656173000000004   0.077386000000000 0
ion C  -4.665986000000002  18.698212000000005   0.068388000000000 0
ion C   9.448248000000000   2.706366000000000   0.012631000000000 0
ion C   2.328861999999999  14.475397000000001   0.253569000000000 0
ion C   0.042876000000000  18.594272000000004   0.073190000000000 0
ion C  14.138414000000001   2.623640000000000  43.255058000000005 0
ion C  11.844565000000001   6.650874000000002  43.203021000000007 0
ion C   9.521247000000002  10.658694000000002   0.090319000000000 0
ion C   7.122066000000002  14.499687000000002   0.203261000000000 0
ion C   4.727331999999999  18.500130000000002   0.133835000000000 0
ion C  18.786642000000001   2.631119000000001   0.042521000000000 0
ion C  16.457229000000005   6.641887000000001  43.187968000000005 0
ion C  14.145656000000001  10.661387000000003  43.198998000000010 0
ion C  11.800829000000004  14.662886000000004   0.056147000000000 0
ion C   9.415837000000000  18.612382000000004   0.091011000000000 0
ion C   4.312874000000001   9.805327000000000   5.590013000000001 1
ion N   2.214488999999999  11.888601000000003   0.379271000000000 0
ion N   7.235267000000003  11.901932000000002   0.297949000000000 0
ion N   2.223138000000001   6.761197000000001   0.383510000000000 0
ion N   7.258843999999998   6.716403000000001   0.167791000000000 0
ion Ti   4.830376000000002   9.294763000000001   1.777359000000000 0
ion O   3.570949000000000  10.434267000000002   7.850891000000002 1
ion O   6.084675999999999   8.177920000000002   5.285056000000001 1
ion O   0.145937999999999  13.711798000000003   7.174276000000002 1
ion H   2.126363000000001  11.788759000000001   7.643564000000000 1
ion H   0.601620000000000  15.346003000000000   7.942205000000001 1
ion H  -1.495565000000002  13.257334000000002   7.926719000000001 1
ion-species /projects/musgravc/apps/jdftx-1.6.0/build/pseudopotentials/GBRV_v1.5/$ID_pbe_v1.uspp
ion-species /projects/musgravc/apps/jdftx-1.6.0/build/pseudopotentials/GBRV_v1.5/$ID_pbe_v1.2.uspp
ion-species /projects/musgravc/apps/jdftx-1.6.0/build/pseudopotentials/GBRV_v1.5/$ID_pbe_v1.4.uspp
ion-species /projects/musgravc/apps/jdftx-1.6.0/build/pseudopotentials/GBRV_v1.5/$ID_pbe_v1.5.uspp
ion-width Ecut
ionic-minimize  \
	dirUpdateScheme      L-BFGS \
	linminMethod         DirUpdateRecommended \
	nIterations          100 \
	history              15 \
	knormThreshold       0.0001 \
	energyDiffThreshold  0.0001 \
	nEnergyDiff          2 \
	alphaTstart          1 \
	alphaTmin            1e-10 \
	updateTestStepSize   yes \
	alphaTreduceFactor   0.1 \
	alphaTincreaseFactor 3 \
	nAlphaAdjustMax      3 \
	wolfeEnergy          0.0001 \
	wolfeGradient        0.9 \
	fdTest               no
kpoint   0.000000000000   0.000000000000   0.000000000000  1.00000000000000
kpoint-folding 3 3 1 
latt-move-scale 0 0 0
latt-scale 1 1 1 
lattice  \
	  23.436261999999999  -11.733459000000000    0.000000000000000  \
	   0.017994000000000   19.941849000000001    0.000000000000000  \
	   0.000000000000000    0.000000000000000   43.256312999999999 
lattice-minimize  \
	dirUpdateScheme      L-BFGS \
	linminMethod         DirUpdateRecommended \
	nIterations          0 \
	history              15 \
	knormThreshold       0 \
	energyDiffThreshold  1e-06 \
	nEnergyDiff          2 \
	alphaTstart          1 \
	alphaTmin            1e-10 \
	updateTestStepSize   yes \
	alphaTreduceFactor   0.1 \
	alphaTincreaseFactor 3 \
	nAlphaAdjustMax      3 \
	wolfeEnergy          0.0001 \
	wolfeGradient        0.9 \
	fdTest               no
lcao-params 30 1e-06 0.001
pcm-variant CANDLE
spintype z-spin
subspace-rotation-factor 1 yes
symmetries none
symmetry-threshold 0.0001
van-der-waals D3
vibrations \
	dr 0.01\
	centralDiff no\
	useConstraints yes\
	translationSym yes\
	rotationSym no\
	omegaMin 0.0002\
	T 298\
	omegaResolution 0.0001


Applied RMS atom displacement 0 bohrs to make symmetries exact.
Applied RMS atom displacement 0 bohrs to make symmetries exact.

---------- Initializing the Grid ----------
R = 
[      23.4363     -11.7335            0  ]
[     0.017994      19.9418            0  ]
[            0            0      43.2563  ]
unit cell volume = 20225.5
G =
[   0.267976   0.157673         -0  ]
[ -0.000241801   0.314933          0  ]
[          0         -0   0.145255  ]
Minimum fftbox size, Smin = [  96  96  176  ]
Chosen fftbox size, S = [  96  96  180  ]

---------- Exchange Correlation functional ----------
Initalized PBE GGA exchange.
Initalized PBE GGA correlation.

---------- Setting up pseudopotentials ----------
Width of ionic core gaussian charges (only for fluid interactions / plotting) set to 0.397384

Reading pseudopotential file '/projects/musgravc/apps/jdftx-1.6.0/build/pseudopotentials/GBRV_v1.5/c_pbe_v1.2.uspp':
  Title: C.  Created by USPP 7.3.6 on 3-2-2014
  Reference state energy: -5.406344.  4 valence electrons in orbitals:
    |200>  occupation: 2  eigenvalue: -0.504890
    |210>  occupation: 2  eigenvalue: -0.194356
  lMax: 1  lLocal: 2  QijEcut: 5
  4 projectors sampled on a log grid with 503 points:
    l: 0  eig: -0.504890  rCut: 1.3
    l: 0  eig: 0.000000  rCut: 1.3
    l: 1  eig: -0.194357  rCut: 1.3
    l: 1  eig: 0.000000  rCut: 1.3
  Partial core density with radius 1.1
  Transforming core density to a uniform radial grid of dG=0.02 with 1464 points.
  Transforming local potential to a uniform radial grid of dG=0.02 with 1464 points.
  Transforming nonlocal projectors to a uniform radial grid of dG=0.02 with 432 points.
  Transforming density augmentations to a uniform radial grid of dG=0.02 with 1464 points.
  Transforming atomic orbitals to a uniform radial grid of dG=0.02 with 432 points.
  Core radius for overlap checks: 1.30 bohrs.

Reading pseudopotential file '/projects/musgravc/apps/jdftx-1.6.0/build/pseudopotentials/GBRV_v1.5/n_pbe_v1.2.uspp':
  Title: N.  Created by USPP 7.3.6 on 3-2-2014
  Reference state energy: -9.763716.  5 valence electrons in orbitals:
    |200>  occupation: 2  eigenvalue: -0.681964
    |210>  occupation: 3  eigenvalue: -0.260726
  lMax: 1  lLocal: 2  QijEcut: 6
  4 projectors sampled on a log grid with 491 points:
    l: 0  eig: -0.681964  rCut: 1.15
    l: 0  eig: 0.000000  rCut: 1.15
    l: 1  eig: -0.260729  rCut: 1.2
    l: 1  eig: 0.500000  rCut: 1.2
  Partial core density with radius 0.8
  Transforming core density to a uniform radial grid of dG=0.02 with 1464 points.
  Transforming local potential to a uniform radial grid of dG=0.02 with 1464 points.
  Transforming nonlocal projectors to a uniform radial grid of dG=0.02 with 432 points.
  Transforming density augmentations to a uniform radial grid of dG=0.02 with 1464 points.
  Transforming atomic orbitals to a uniform radial grid of dG=0.02 with 432 points.
  Core radius for overlap checks: 1.20 bohrs.

Reading pseudopotential file '/projects/musgravc/apps/jdftx-1.6.0/build/pseudopotentials/GBRV_v1.5/ti_pbe_v1.4.uspp':
  Title: Ti.  Created by USPP 7.3.6 on 31-3-15
  Reference state energy: -59.020943.  12 valence electrons in orbitals:
    |300>  occupation: 2  eigenvalue: -2.777623
    |310>  occupation: 6  eigenvalue: -1.894596
    |400>  occupation: 2  eigenvalue: -0.438610
    |320>  occupation: 1  eigenvalue: -0.583119
  lMax: 2  lLocal: 3  QijEcut: 6
  6 projectors sampled on a log grid with 597 points:
    l: 0  eig: -2.777624  rCut: 1.8
    l: 0  eig: -0.438611  rCut: 1.8
    l: 1  eig: -1.894596  rCut: 1.8
    l: 1  eig: 0.500000  rCut: 1.8
    l: 2  eig: -0.583118  rCut: 1.8
    l: 2  eig: 0.150000  rCut: 1.8
  Partial core density with radius 0.8
  Transforming core density to a uniform radial grid of dG=0.02 with 1464 points.
  Transforming local potential to a uniform radial grid of dG=0.02 with 1464 points.
  Transforming nonlocal projectors to a uniform radial grid of dG=0.02 with 432 points.
  Transforming density augmentations to a uniform radial grid of dG=0.02 with 1464 points.
  Transforming atomic orbitals to a uniform radial grid of dG=0.02 with 432 points.
  Core radius for overlap checks: 1.80 bohrs.

Reading pseudopotential file '/projects/musgravc/apps/jdftx-1.6.0/build/pseudopotentials/GBRV_v1.5/o_pbe_v1.2.uspp':
  Title: O.  Created by USPP 7.3.6 on 3-2-2014
  Reference state energy: -15.894388.  6 valence electrons in orbitals:
    |200>  occupation: 2  eigenvalue: -0.878823
    |210>  occupation: 4  eigenvalue: -0.332131
  lMax: 2  lLocal: 2  QijEcut: 6
  5 projectors sampled on a log grid with 511 points:
    l: 0  eig: -0.878823  rCut: 1.25
    l: 0  eig: 0.000000  rCut: 1.25
    l: 1  eig: -0.332132  rCut: 1.25
    l: 1  eig: 0.000000  rCut: 1.25
    l: 2  eig: 1.000000  rCut: 1.25
  Partial core density with radius 0.7
  Transforming core density to a uniform radial grid of dG=0.02 with 1464 points.
  Transforming local potential to a uniform radial grid of dG=0.02 with 1464 points.
  Transforming nonlocal projectors to a uniform radial grid of dG=0.02 with 432 points.
  Transforming density augmentations to a uniform radial grid of dG=0.02 with 1464 points.
  Transforming atomic orbitals to a uniform radial grid of dG=0.02 with 432 points.
  Core radius for overlap checks: 1.25 bohrs.

Reading pseudopotential file '/projects/musgravc/apps/jdftx-1.6.0/build/pseudopotentials/GBRV_v1.5/h_pbe_v1.4.uspp':
  Title: H.  Created by USPP 7.3.6 on 2-4-15
  Reference state energy: -0.458849.  1 valence electrons in orbitals:
    |100>  occupation: 1  eigenvalue: -0.238595
  lMax: 0  lLocal: 1  QijEcut: 6
  2 projectors sampled on a log grid with 395 points:
    l: 0  eig: -0.238595  rCut: 1.2
    l: 0  eig: 1.000000  rCut: 1.2
  Transforming local potential to a uniform radial grid of dG=0.02 with 1464 points.
  Transforming nonlocal projectors to a uniform radial grid of dG=0.02 with 432 points.
  Transforming density augmentations to a uniform radial grid of dG=0.02 with 1464 points.
  Transforming atomic orbitals to a uniform radial grid of dG=0.02 with 432 points.
  Core radius for overlap checks: 1.20 bohrs.

Initialized 5 species with 56 total atoms.

Folded 1 k-points by 3x3x1 to 9 k-points.

---------- Setting up k-points, bands, fillings ----------
No reducable k-points. 
Computing the number of bands and number of electrons
Calculating initial fillings.
nElectrons: 233.000000   nBands: 140   nStates: 18

----- Setting up reduced wavefunction bases (one per k-point) -----
average nbasis = 86412.556 , ideal nbasis = 86404.907

----- Initializing Supercell corresponding to k-point mesh -----
Lattice vector linear combinations in supercell:
[   3   0   0  ]
[   0   3   0  ]
[   0   0   1  ]
Supercell lattice vectors:
[  70.3088  -35.2004  0  ]
[  0.053982  59.8255  0  ]
[  0  0  43.2563  ]

Initializing DFT-D3 calculator:
	Parameters set for gga-PBE functional
	s6:  1.000  s_r6:  1.217
	s8:  0.722  s_r8:  1.000
	Per-atom parameters loaded for:
	 C:  sqrtQ[a0]:  3.105  Rcov[a0]:  1.417  CN: [ 0.00 0.99 2.00 3.00 3.98 ]
	 N:  sqrtQ[a0]:  2.712  Rcov[a0]:  1.342  CN: [ 0.00 0.99 2.01 2.99 ]
	Ti:  sqrtQ[a0]:  6.288  Rcov[a0]:  2.305  CN: [ 0.00 1.83 3.87 ]
	 O:  sqrtQ[a0]:  2.594  Rcov[a0]:  1.191  CN: [ 0.00 0.99 1.99 ]
	 H:  sqrtQ[a0]:  2.007  Rcov[a0]:  0.605  CN: [ 0.91 0.00 ]

Initializing DFT-D2 calculator for fluid / solvation:
	 C:  C6:   30.35 Eh-a0^6  R0: 2.744 a0
	 N:  C6:   21.33 Eh-a0^6  R0: 2.640 a0
	Ti:  C6:  187.33 Eh-a0^6  R0: 2.952 a0
	 O:  C6:   12.14 Eh-a0^6  R0: 2.536 a0
	 H:  C6:    2.43 Eh-a0^6  R0: 1.892 a0

---------- Setting up ewald sum ----------
Optimum gaussian width for ewald sums = 5.557061 bohr.
Real space sum over 567 unit cells with max indices [  4  4  3  ]
Reciprocal space sum over 7803 terms with max indices [  8  8  13  ]

Computing DFT-D3 correction:
# coordination-number C 3.299 3.321 3.335 3.332 3.312 3.289 3.321 3.553 3.330 3.313 3.302 3.331 3.304 3.300 3.324 3.628 3.267 3.301 3.319 3.334 3.326 3.302 3.301 3.328 3.335 3.320 3.300 3.267 3.549 3.325 3.301 3.305 3.321 3.301 3.313 3.329 3.635 3.326 3.289 3.312 3.332 3.334 3.321 3.300 3.016
# coordination-number N 3.174 3.178 3.174 3.182
# coordination-number Ti 7.430
# coordination-number O 2.000 1.985 2.078
# coordination-number H 1.071 0.992 0.992
# diagonal-C6 C 24.29 24.07 23.92 23.96 24.17 24.39 24.07 20.88 23.97 24.15 24.26 23.97 24.24 24.28 24.04 19.97 24.58 24.28 24.09 23.93 24.02 24.27 24.28 24.00 23.92 24.09 24.29 24.57 20.93 24.03 24.27 24.23 24.07 24.27 24.16 23.99 19.89 24.02 24.39 24.16 23.95 23.94 24.08 24.28 25.64
# diagonal-C6 N 15.60 15.60 15.60 15.60
# diagonal-C6 Ti 321.59
# diagonal-C6 O 10.41 10.41 10.39
# diagonal-C6 H 3.06 3.09 3.09
EvdW_6 =   -0.043594
EvdW_8 =   -0.033241

---------- Allocating electronic variables ----------
Initializing wave functions:  linear combination of atomic orbitals
C pseudo-atom occupations:   s ( 2 )  p ( 2 )
N pseudo-atom occupations:   s ( 2 )  p ( 3 )
Ti pseudo-atom occupations:   s ( 2 0 )  p ( 6 )  d ( 4 )
O pseudo-atom occupations:   s ( 2 )  p ( 4 )
H pseudo-atom occupations:   s ( 1 )
	FillingsUpdate:  mu: -0.210279924  nElectrons: 233.000000  magneticMoment: [ Abs: 0.00449  Tot: +0.00002 ]
LCAOMinimize: Iter:   0  F: -399.0727890412923671  |grad|_K:  4.407e-03  alpha:  1.000e+00
	FillingsUpdate:  mu: -0.208350794  nElectrons: 233.000000  magneticMoment: [ Abs: 0.00442  Tot: -0.00001 ]
LCAOMinimize: Iter:   1  F: -400.9634244090793800  |grad|_K:  1.507e-03  alpha:  1.065e-01  linmin: -1.403e-01  cgtest:  1.709e+00  t[s]:    307.99
LCAOMinimize: Encountered beta<0, resetting CG.
LCAOMinimize: 	Predicted alpha/alphaT>3.000000, increasing alphaT to 3.193896e-01.
LCAOMinimize: 	Predicted alpha/alphaT>3.000000, increasing alphaT to 9.581687e-01.
	FillingsUpdate:  mu: -0.211365190  nElectrons: 233.000000  magneticMoment: [ Abs: 0.00441  Tot: -0.00001 ]
LCAOMinimize: Iter:   2  F: -401.0296568066947884  |grad|_K:  1.420e-03  alpha:  3.394e-02  linmin: -1.639e-01  cgtest:  1.001e+00  t[s]:    499.32
LCAOMinimize: Encountered beta<0, resetting CG.
LCAOMinimize: 	Predicted alpha/alphaT>3.000000, increasing alphaT to 1.018227e-01.
LCAOMinimize: 	Predicted alpha/alphaT>3.000000, increasing alphaT to 3.054681e-01.
LCAOMinimize: 	Wrong curvature in test step, increasing alphaT to 9.164042e-01.
	FillingsUpdate:  mu: -0.245863361  nElectrons: 233.000000  magneticMoment: [ Abs: 0.00443  Tot: +0.00001 ]
LCAOMinimize: Iter:   3  F: -401.5961038696270862  |grad|_K:  1.189e-03  alpha: -4.155e+00  linmin: -2.233e-01  cgtest:  5.273e-01  t[s]:    685.48
	FillingsUpdate:  mu: -0.252327768  nElectrons: 233.000000  magneticMoment: [ Abs: 0.00444  Tot: +0.00001 ]
LCAOMinimize: Iter:   4  F: -401.6669027695368186  |grad|_K:  1.174e-03  alpha:  3.600e-02  linmin: -2.364e-01  cgtest:  8.950e-01  t[s]:    809.67
LCAOMinimize: 	Wrong curvature in test step, increasing alphaT to 1.079963e-01.
	FillingsUpdate:  mu: -0.256638871  nElectrons: 233.000000  magneticMoment: [ Abs: 0.00445  Tot: +0.00001 ]
LCAOMinimize: Iter:   5  F: -401.7194009841757634  |grad|_K:  1.150e-03  alpha: -5.496e-01  linmin: -2.465e-01  cgtest:  9.198e-01  t[s]:    930.81
	FillingsUpdate:  mu: -0.258800128  nElectrons: 233.000000  magneticMoment: [ Abs: 0.00445  Tot: +0.00001 ]
LCAOMinimize: Iter:   6  F: -401.7581011081708198  |grad|_K:  1.122e-03  alpha:  3.006e-02  linmin: -2.540e-01  cgtest:  9.393e-01  t[s]:   1053.97
LCAOMinimize: 	Wrong curvature in test step, increasing alphaT to 9.019049e-02.
	FillingsUpdate:  mu: -0.257070465  nElectrons: 233.000000  magneticMoment: [ Abs: 0.00446  Tot: +0.00001 ]
LCAOMinimize: Iter:   7  F: -401.7935763738035462  |grad|_K:  1.086e-03  alpha: -1.091e+00  linmin: -2.613e-01  cgtest:  9.432e-01  t[s]:   1179.16
	FillingsUpdate:  mu: -0.255897143  nElectrons: 233.000000  magneticMoment: [ Abs: 0.00446  Tot: +0.00001 ]
LCAOMinimize: Iter:   8  F: -401.8263717933726298  |grad|_K:  1.041e-03  alpha:  3.027e-02  linmin: -2.683e-01  cgtest:  9.460e-01  t[s]:   1302.93
LCAOMinimize: 	Wrong curvature in test step, increasing alphaT to 9.081235e-02.
	FillingsUpdate:  mu: -0.255425477  nElectrons: 233.000000  magneticMoment: [ Abs: 0.00447  Tot: +0.00002 ]
LCAOMinimize: Iter:   9  F: -401.8559169376816840  |grad|_K:  9.884e-04  alpha: -1.615e+01  linmin: -2.749e-01  cgtest:  9.496e-01  t[s]:   1425.64
LCAOMinimize: Encountered beta<0, resetting CG.
	FillingsUpdate:  mu: -0.254875909  nElectrons: 233.000000  magneticMoment: [ Abs: 0.00447  Tot: +0.00002 ]
LCAOMinimize: Iter:  10  F: -401.8798644709391397  |grad|_K:  9.343e-04  alpha:  2.778e-02  linmin: -2.803e-01  cgtest:  9.573e-01  t[s]:   1551.67
LCAOMinimize: Encountered beta<0, resetting CG.
LCAOMinimize: 	Predicted alpha/alphaT>3.000000, increasing alphaT to 8.332619e-02.
LCAOMinimize: 	Predicted alpha/alphaT>3.000000, increasing alphaT to 2.499786e-01.
	FillingsUpdate:  mu: -0.169490892  nElectrons: 233.000000  magneticMoment: [ Abs: 0.00452  Tot: +0.00004 ]
LCAOMinimize: Iter:  11  F: -401.9919881865447451  |grad|_K:  3.986e-04  alpha:  2.348e-01  linmin:  1.824e-01  cgtest: -3.925e-01  t[s]:   1736.24
LCAOMinimize: 	Bad step direction: g.d > 0.
LCAOMinimize: 	Undoing step.
LCAOMinimize: 	Step failed: resetting search direction.
	FillingsUpdate:  mu: -0.169490892  nElectrons: 233.000000  magneticMoment: [ Abs: 0.00452  Tot: +0.00004 ]
LCAOMinimize: Iter:  12  F: -401.9919881865447451  |grad|_K:  3.986e-04  alpha:  0.000e+00
	FillingsUpdate:  mu: -0.178732987  nElectrons: 233.000000  magneticMoment: [ Abs: 0.00453  Tot: +0.00004 ]
LCAOMinimize: Iter:  13  F: -401.9992890940499137  |grad|_K:  9.564e-05  alpha:  1.362e-01  linmin:  1.281e-02  cgtest: -4.091e-01  t[s]:   1951.51
	FillingsUpdate:  mu: -0.177645523  nElectrons: 233.000000  magneticMoment: [ Abs: 0.00457  Tot: +0.00005 ]
LCAOMinimize: Iter:  14  F: -402.0006564747783955  |grad|_K:  7.221e-05  alpha:  3.472e-01  linmin:  2.148e-03  cgtest:  3.164e-01  t[s]:   2075.11
	FillingsUpdate:  mu: -0.174455994  nElectrons: 233.000000  magneticMoment: [ Abs: 0.00459  Tot: +0.00006 ]
LCAOMinimize: Iter:  15  F: -402.0010595949675576  |grad|_K:  3.871e-05  alpha:  1.423e-01  linmin: -6.015e-02  cgtest:  4.533e-01  t[s]:   2195.27
	FillingsUpdate:  mu: -0.174507333  nElectrons: 233.000000  magneticMoment: [ Abs: 0.00461  Tot: +0.00006 ]
LCAOMinimize: Iter:  16  F: -402.0012727701418385  |grad|_K:  2.066e-05  alpha:  3.077e-01  linmin: -9.248e-03  cgtest: -4.267e-02  t[s]:   2316.99
	FillingsUpdate:  mu: -0.173835767  nElectrons: 233.000000  magneticMoment: [ Abs: 0.00462  Tot: +0.00007 ]
LCAOMinimize: Iter:  17  F: -402.0013318783434784  |grad|_K:  1.569e-05  alpha:  3.032e-01  linmin:  2.979e-03  cgtest: -2.867e-02  t[s]:   2451.10
	FillingsUpdate:  mu: -0.174251262  nElectrons: 233.000000  magneticMoment: [ Abs: 0.00464  Tot: +0.00007 ]
LCAOMinimize: Iter:  18  F: -402.0013576143655314  |grad|_K:  5.514e-06  alpha:  2.406e-01  linmin: -1.621e-04  cgtest:  1.038e-01  t[s]:   2571.16
	FillingsUpdate:  mu: -0.174266673  nElectrons: 233.000000  magneticMoment: [ Abs: 0.00464  Tot: +0.00008 ]
LCAOMinimize: Iter:  19  F: -402.0013616401758441  |grad|_K:  1.095e-06  alpha:  2.984e-01  linmin: -1.293e-04  cgtest: -8.022e-03  t[s]:   2691.85
	FillingsUpdate:  mu: -0.174260308  nElectrons: 233.000000  magneticMoment: [ Abs: 0.00465  Tot: +0.00008 ]
LCAOMinimize: Iter:  20  F: -402.0013617957404790  |grad|_K:  5.990e-07  alpha:  2.923e-01  linmin:  5.849e-05  cgtest: -4.931e-04  t[s]:   2814.66
	FillingsUpdate:  mu: -0.174270328  nElectrons: 233.000000  magneticMoment: [ Abs: 0.00465  Tot: +0.00008 ]
LCAOMinimize: Iter:  21  F: -402.0013618600785321  |grad|_K:  3.923e-07  alpha:  4.038e-01  linmin: -4.947e-04  cgtest:  5.114e-03  t[s]:   2937.61
LCAOMinimize: Converged (|Delta F|<1.000000e-06 for 2 iters).
----- createFluidSolver() ----- (Fluid-side solver setup)
   Initializing fluid molecule 'H2O'
     Initializing site 'O'
       Electron density: proportional to exp(-r/0.36935)*erfc((r-0.51523)/0.36823) with norm 6.826
       Charge density: gaussian nuclear width 0.478731 with net site charge 0.826
       Polarizability: cuspless exponential with width 0.32 and norm 3.73
       Hard sphere radius: 2.57003 bohrs
       Positions in reference frame:
         [ +0.000000 +0.000000 +0.000000 ]
     Initializing site 'H'
       Electron density: proportional to exp(-r/0.34641)*erfc((r-0)/0.390882) with norm 0.587
       Charge density: gaussian nuclear width 0.377945 with net site charge -0.413
       Polarizability: cuspless exponential with width 0.39 and norm 3.3
       Positions in reference frame:
         [ +0.000000 -1.441945 +1.122523 ]
         [ +0.000000 +1.441945 +1.122523 ]
     Net charge: 0   dipole magnitude: 0.927204
     Initializing spherical shell mfKernel with radius 2.61727 Bohr
     deltaS corrections:
       site 'O': -7.54299
       site 'H': -6.83917
   Initializing fluid molecule 'Na+'
     Initializing site 'Na'
       Electron density: proportional to exp(-r/0.19682)*erfc((r-0.71491)/0.41314) with norm 8.1383
       Charge density: gaussian nuclear width 0.365347 with net site charge -1
       Hard sphere radius: 1.86327 bohrs
       Positions in reference frame:
         [ +0.000000 +0.000000 +0.000000 ]
     Net charge: -1   dipole magnitude: 0
     Initializing gaussian mfKernel with width: 1.55004 Bohr
     deltaS corrections:
       site 'Na': -22.3555
   Initializing fluid molecule 'F-'
     Initializing site 'F'
       Electron density: proportional to exp(-r/0.38886)*erfc((r-0)/0.438782) with norm 8
       Charge density: gaussian nuclear width 0.374796 with net site charge 1
       Hard sphere radius: 2.39995 bohrs
       Positions in reference frame:
         [ +0.000000 +0.000000 +0.000000 ]
     Net charge: 1   dipole magnitude: 0
     Initializing gaussian mfKernel with width: 1.59012 Bohr
     deltaS corrections:
       site 'F': -9.04335

Correction to mu due to finite nuclear width = -0.0114303
   Cavity determined by nc: 0.00142 and sigma: 0.707107
   Nonlocal vdW cavity from gaussian model electron density with norm = 8 and sigma = 0.993594 bohr
   Charge asymmetry in cavity with sensitivity pCavity = 36.5 e-bohr/Eh
   Electrostatic cavity expanded by eta = 1.46 bohrs
   Weighted density cavitation model constrained by Nbulk: 0.0049383 bohr^-3, Pvap: 3.14029 kPa, Rvdw: 2.61727 bohr and sigmaBulk: 4.62e-05 Eh/bohr^2 at T: 298 K.
   Weighted density dispersion model using vdW pair potentials with single solvent site with sqrtC6eff: 0.77 SI.
WARNING: Vibrations: switching off translationSym and rotationSym since useConstraints is on.

---- Citations for features of the code used in this run ----

   Software package:
      R. Sundararaman, K. Letchworth-Weaver, K.A. Schwarz, D. Gunceler, Y. Ozhabes and T.A. Arias, 'JDFTx: software for joint density-functional theory', SoftwareX 6, 278 (2017)

   gga-PBE exchange-correlation functional:
      J.P. Perdew, K. Burke and M. Ernzerhof, Phys. Rev. Lett. 77, 3865 (1996)

   Pseudopotentials:
      KF Garrity, JW Bennett, KM Rabe and D Vanderbilt, Comput. Mater. Sci. 81, 446 (2014)

   DFT-D3 dispersion correction:
      S. Grimme, J. Antony, S. Ehrlich and H. Krieg, J. Chem. Phys. 132, 154104 (2010)

   DFT-D2 dispersion correction:
      S. Grimme, J. Comput. Chem. 27, 1787 (2006)

   Charge-asymmetric nonlocally-determined local-electric (CANDLE) solvation model:
      R. Sundararaman and W.A. Goddard III, J. Chem. Phys. 142, 064107 (2015)

   Total energy minimization with Auxiliary Hamiltonian:
      C. Freysoldt, S. Boeck, and J. Neugebauer, Phys. Rev. B 79, 241103(R) (2009)

   Linear-tetrahedron sampling for density of states:
      G. Lehmann and M. Taut, Phys. status solidi (b) 54, 469 (1972)

This list may not be complete. Please suggest additional citations or
report any other bugs at https://github.com/shankar1729/jdftx/issues

Initialization completed successfully at t[s]:   2953.81

------ Vibrations::calculate() -------
WARNING: Vibrations module is experimental. Please report bugs!
Compare results with and without symmetries and report discrepancies.
Degrees of freedom: 21 total, 21 symmetry-independent.

Computing DFT-D3 correction:
# coordination-number C 3.299 3.321 3.335 3.332 3.312 3.289 3.321 3.553 3.330 3.313 3.302 3.331 3.304 3.300 3.324 3.628 3.267 3.301 3.319 3.334 3.326 3.302 3.301 3.328 3.335 3.320 3.300 3.267 3.549 3.325 3.301 3.305 3.321 3.301 3.313 3.329 3.635 3.326 3.289 3.312 3.332 3.334 3.321 3.300 3.016
# coordination-number N 3.174 3.178 3.174 3.182
# coordination-number Ti 7.430
# coordination-number O 2.000 1.985 2.078
# coordination-number H 1.071 0.992 0.992
# diagonal-C6 C 24.29 24.07 23.92 23.96 24.17 24.39 24.07 20.88 23.97 24.15 24.26 23.97 24.24 24.28 24.04 19.97 24.58 24.28 24.09 23.93 24.02 24.27 24.28 24.00 23.92 24.09 24.29 24.57 20.93 24.03 24.27 24.23 24.07 24.27 24.16 23.99 19.89 24.02 24.39 24.16 23.95 23.94 24.08 24.28 25.64
# diagonal-C6 N 15.60 15.60 15.60 15.60
# diagonal-C6 Ti 321.59
# diagonal-C6 O 10.41 10.41 10.39
# diagonal-C6 H 3.06 3.09 3.09
EvdW_6 =   -0.043594
EvdW_8 =   -0.033241
Fluid solver invoked on fresh (random / LCAO) wavefunctions
Running a vacuum solve first:

-------- Initial electronic minimization -----------
	FillingsUpdate:  mu: -0.174270328  nElectrons: 233.000000  magneticMoment: [ Abs: 0.00465  Tot: +0.00008 ]
ElecMinimize: Iter:   0  F: -402.001361860078077  |grad|_K:  1.439e-04  alpha:  1.000e+00
	FillingsUpdate:  mu: -0.110042807  nElectrons: 233.000000  magneticMoment: [ Abs: 0.00256  Tot: +0.00009 ]
	SubspaceRotationAdjust: set factor to 1
ElecMinimize: Iter:   1  F: -405.034441305059659  |grad|_K:  4.705e-05  alpha:  6.807e-01  linmin:  4.056e-04  t[s]:   3147.54
	FillingsUpdate:  mu: -0.050273467  nElectrons: 233.000000  magneticMoment: [ Abs: 0.00258  Tot: +0.00031 ]
	SubspaceRotationAdjust: set factor to 0.669
ElecMinimize: Iter:   2  F: -405.102254927581612  |grad|_K:  5.766e-05  alpha:  1.114e-01  linmin:  2.793e-04  t[s]:   3264.84
	FillingsUpdate:  mu: -0.055047386  nElectrons: 233.000000  magneticMoment: [ Abs: 0.00232  Tot: +0.00096 ]
	SubspaceRotationAdjust: set factor to 0.438
ElecMinimize: Iter:   3  F: -405.248696965591193  |grad|_K:  5.369e-05  alpha:  2.410e-01  linmin:  2.023e-04  t[s]:   3381.76
	FillingsUpdate:  mu: -0.059542851  nElectrons: 233.000000  magneticMoment: [ Abs: 0.00182  Tot: +0.00094 ]
	SubspaceRotationAdjust: set factor to 0.401
ElecMinimize: Iter:   4  F: -405.305772641773672  |grad|_K:  2.285e-05  alpha:  1.026e-01  linmin:  2.744e-04  t[s]:   3498.21
	FillingsUpdate:  mu: -0.109739303  nElectrons: 233.000000  magneticMoment: [ Abs: 0.00135  Tot: +0.00068 ]
	SubspaceRotationAdjust: set factor to 0.365
ElecMinimize: Iter:   5  F: -405.329113270334346  |grad|_K:  2.342e-05  alpha:  2.166e-01  linmin: -4.653e-04  t[s]:   3614.93
	FillingsUpdate:  mu: -0.061889799  nElectrons: 233.000000  magneticMoment: [ Abs: 0.00243  Tot: +0.00211 ]
	SubspaceRotationAdjust: set factor to 0.489
ElecMinimize: Iter:   6  F: -405.364626328869576  |grad|_K:  1.030e-05  alpha:  2.555e-01  linmin:  3.789e-04  t[s]:   3731.06
	FillingsUpdate:  mu: -0.053485332  nElectrons: 233.000000  magneticMoment: [ Abs: 0.00416  Tot: +0.00395 ]
	SubspaceRotationAdjust: set factor to 0.405
ElecMinimize: Iter:   7  F: -405.372748485202578  |grad|_K:  1.137e-05  alpha:  3.756e-01  linmin: -6.095e-04  t[s]:   3847.46
	FillingsUpdate:  mu: -0.062778276  nElectrons: 233.000000  magneticMoment: [ Abs: 0.00507  Tot: +0.00490 ]
	SubspaceRotationAdjust: set factor to 0.239
ElecMinimize: Iter:   8  F: -405.379074380859549  |grad|_K:  5.590e-06  alpha:  2.074e-01  linmin:  7.519e-05  t[s]:   3963.15
	FillingsUpdate:  mu: -0.060481727  nElectrons: 233.000000  magneticMoment: [ Abs: 0.00930  Tot: +0.00911 ]
	SubspaceRotationAdjust: set factor to 0.324
ElecMinimize: Iter:   9  F: -405.382527960604421  |grad|_K:  3.188e-06  alpha:  5.106e-01  linmin:  6.223e-06  t[s]:   4080.57
	FillingsUpdate:  mu: -0.055279071  nElectrons: 233.000000  magneticMoment: [ Abs: 0.01485  Tot: +0.01455 ]
	SubspaceRotationAdjust: set factor to 0.287
ElecMinimize: Iter:  10  F: -405.383623344233968  |grad|_K:  2.369e-06  alpha:  4.951e-01  linmin: -1.450e-05  t[s]:   4198.11
	FillingsUpdate:  mu: -0.060877376  nElectrons: 233.000000  magneticMoment: [ Abs: 0.02160  Tot: +0.02115 ]
	SubspaceRotationAdjust: set factor to 0.211
ElecMinimize: Iter:  11  F: -405.384099024446357  |grad|_K:  1.930e-06  alpha:  3.872e-01  linmin:  1.316e-06  t[s]:   4314.65
	FillingsUpdate:  mu: -0.057232908  nElectrons: 233.000000  magneticMoment: [ Abs: 0.03501  Tot: +0.03429 ]
	SubspaceRotationAdjust: set factor to 0.211
ElecMinimize: Iter:  12  F: -405.384420813948452  |grad|_K:  1.073e-06  alpha:  3.965e-01  linmin: -2.495e-06  t[s]:   4431.07
	FillingsUpdate:  mu: -0.056656015  nElectrons: 233.000000  magneticMoment: [ Abs: 0.05798  Tot: +0.05668 ]
	SubspaceRotationAdjust: set factor to 0.226
ElecMinimize: Iter:  13  F: -405.384592726699282  |grad|_K:  8.786e-07  alpha:  6.843e-01  linmin:  2.792e-06  t[s]:   4546.86
	FillingsUpdate:  mu: -0.058991510  nElectrons: 233.000000  magneticMoment: [ Abs: 0.09056  Tot: +0.08838 ]
	SubspaceRotationAdjust: set factor to 0.229
ElecMinimize: Iter:  14  F: -405.384688375014775  |grad|_K:  8.568e-07  alpha:  5.702e-01  linmin: -3.169e-06  t[s]:   4662.86
	FillingsUpdate:  mu: -0.057245788  nElectrons: 233.000000  magneticMoment: [ Abs: 0.17458  Tot: +0.17038 ]
	SubspaceRotationAdjust: set factor to 0.242
ElecMinimize: Iter:  15  F: -405.384800824742001  |grad|_K:  1.195e-06  alpha:  7.145e-01  linmin:  6.901e-05  t[s]:   4779.30
	FillingsUpdate:  mu: -0.056348790  nElectrons: 233.000000  magneticMoment: [ Abs: 0.38868  Tot: +0.37781 ]
	SubspaceRotationAdjust: set factor to 0.265
ElecMinimize: Iter:  16  F: -405.385011101018222  |grad|_K:  2.422e-06  alpha:  7.725e-01  linmin:  2.533e-04  t[s]:   4895.67
	FillingsUpdate:  mu: -0.056256227  nElectrons: 233.000000  magneticMoment: [ Abs: 0.44915  Tot: +0.43502 ]
	SubspaceRotationAdjust: set factor to 0.296
ElecMinimize: Iter:  17  F: -405.385035311683623  |grad|_K:  2.641e-06  alpha:  7.108e-02  linmin:  1.198e-04  t[s]:   5012.48
	FillingsUpdate:  mu: -0.056721583  nElectrons: 233.000000  magneticMoment: [ Abs: 0.49231  Tot: +0.47417 ]
	SubspaceRotationAdjust: set factor to 0.356
ElecMinimize: Iter:  18  F: -405.385100703059095  |grad|_K:  2.455e-06  alpha:  5.662e-02  linmin: -1.023e-05  t[s]:   5129.46
	FillingsUpdate:  mu: -0.058168388  nElectrons: 233.000000  magneticMoment: [ Abs: 0.52272  Tot: +0.49949 ]
	SubspaceRotationAdjust: set factor to 0.497
ElecMinimize: Iter:  19  F: -405.385189650848986  |grad|_K:  1.996e-06  alpha:  6.593e-02  linmin: -4.201e-05  t[s]:   5246.08
	FillingsUpdate:  mu: -0.060790667  nElectrons: 233.000000  magneticMoment: [ Abs: 0.53980  Tot: +0.51193 ]
	SubspaceRotationAdjust: set factor to 0.585
ElecMinimize: Iter:  20  F: -405.385256866574309  |grad|_K:  1.798e-06  alpha:  7.340e-02  linmin: -3.255e-05  t[s]:   5363.54
	FillingsUpdate:  mu: -0.063520684  nElectrons: 233.000000  magneticMoment: [ Abs: 0.55645  Tot: +0.52274 ]
	SubspaceRotationAdjust: set factor to 0.697
ElecMinimize: Iter:  21  F: -405.385321350754225  |grad|_K:  2.006e-06  alpha:  8.862e-02  linmin: -6.804e-05  t[s]:   5476.43
	FillingsUpdate:  mu: -0.064508251  nElectrons: 233.000000  magneticMoment: [ Abs: 0.57956  Tot: +0.53564 ]
	SubspaceRotationAdjust: set factor to 0.72
ElecMinimize: Iter:  22  F: -405.385406277811796  |grad|_K:  2.152e-06  alpha:  9.403e-02  linmin: -7.862e-05  t[s]:   5587.67
	FillingsUpdate:  mu: -0.062734322  nElectrons: 233.000000  magneticMoment: [ Abs: 0.60163  Tot: +0.54512 ]
	SubspaceRotationAdjust: set factor to 1.03
ElecMinimize: Iter:  23  F: -405.385482771906482  |grad|_K:  1.776e-06  alpha:  7.520e-02  linmin: -2.920e-05  t[s]:   5699.07
	FillingsUpdate:  mu: -0.060150716  nElectrons: 233.000000  magneticMoment: [ Abs: 0.61952  Tot: +0.55020 ]
	SubspaceRotationAdjust: set factor to 1.09
ElecMinimize: Iter:  24  F: -405.385544450425982  |grad|_K:  1.612e-06  alpha:  8.689e-02  linmin: -3.686e-05  t[s]:   5810.31
	FillingsUpdate:  mu: -0.058495403  nElectrons: 233.000000  magneticMoment: [ Abs: 0.64205  Tot: +0.55319 ]
	SubspaceRotationAdjust: set factor to 1.23
ElecMinimize: Iter:  25  F: -405.385626625136297  |grad|_K:  1.781e-06  alpha:  1.357e-01  linmin: -1.402e-05  t[s]:   5921.59
	FillingsUpdate:  mu: -0.059803091  nElectrons: 233.000000  magneticMoment: [ Abs: 0.66192  Tot: +0.55409 ]
	SubspaceRotationAdjust: set factor to 1.48
ElecMinimize: Iter:  26  F: -405.385706434833764  |grad|_K:  1.514e-06  alpha:  1.118e-01  linmin: -1.238e-06  t[s]:   6032.83
	FillingsUpdate:  mu: -0.062238146  nElectrons: 233.000000  magneticMoment: [ Abs: 0.67302  Tot: +0.55419 ]
	SubspaceRotationAdjust: set factor to 1.47
ElecMinimize: Iter:  27  F: -405.385760440672698  |grad|_K:  1.534e-06  alpha:  1.078e-01  linmin: -1.835e-06  t[s]:   6144.43
	FillingsUpdate:  mu: -0.062578551  nElectrons: 233.000000  magneticMoment: [ Abs: 0.68794  Tot: +0.55449 ]
	SubspaceRotationAdjust: set factor to 1.76
ElecMinimize: Iter:  28  F: -405.385832899844900  |grad|_K:  1.591e-06  alpha:  1.405e-01  linmin:  1.791e-07  t[s]:   6255.73
	FillingsUpdate:  mu: -0.060123032  nElectrons: 233.000000  magneticMoment: [ Abs: 0.69922  Tot: +0.55482 ]
	SubspaceRotationAdjust: set factor to 2.02
ElecMinimize: Iter:  29  F: -405.385888745564614  |grad|_K:  1.473e-06  alpha:  1.015e-01  linmin: -5.992e-07  t[s]:   6367.09
	FillingsUpdate:  mu: -0.058334290  nElectrons: 233.000000  magneticMoment: [ Abs: 0.70388  Tot: +0.55460 ]
	SubspaceRotationAdjust: set factor to 1.75
ElecMinimize: Iter:  30  F: -405.385957706079296  |grad|_K:  1.854e-06  alpha:  1.458e-01  linmin: -9.640e-07  t[s]:   6477.76
	FillingsUpdate:  mu: -0.060047884  nElectrons: 233.000000  magneticMoment: [ Abs: 0.69734  Tot: +0.55303 ]
	SubspaceRotationAdjust: set factor to 2.52
ElecMinimize: Iter:  31  F: -405.386025274763256  |grad|_K:  1.462e-06  alpha:  8.810e-02  linmin: -3.674e-05  t[s]:   6588.00
	FillingsUpdate:  mu: -0.062379318  nElectrons: 233.000000  magneticMoment: [ Abs: 0.68463  Tot: +0.54953 ]
	SubspaceRotationAdjust: set factor to 2.12
ElecMinimize: Iter:  32  F: -405.386076207782651  |grad|_K:  1.895e-06  alpha:  1.104e-01  linmin:  4.528e-05  t[s]:   6698.28
	FillingsUpdate:  mu: -0.061355158  nElectrons: 233.000000  magneticMoment: [ Abs: 0.67226  Tot: +0.54584 ]
	SubspaceRotationAdjust: set factor to 2.53
ElecMinimize: Iter:  33  F: -405.386122780288929  |grad|_K:  1.441e-06  alpha:  6.395e-02  linmin: -8.704e-07  t[s]:   6814.70
	FillingsUpdate:  mu: -0.059257559  nElectrons: 233.000000  magneticMoment: [ Abs: 0.66706  Tot: +0.54546 ]
	SubspaceRotationAdjust: set factor to 2.54
ElecMinimize: Iter:  34  F: -405.386147390147130  |grad|_K:  1.275e-06  alpha:  5.422e-02  linmin:  6.033e-07  t[s]:   6931.96
	FillingsUpdate:  mu: -0.058611214  nElectrons: 233.000000  magneticMoment: [ Abs: 0.65513  Tot: +0.54438 ]
	SubspaceRotationAdjust: set factor to 2.36
ElecMinimize: Iter:  35  F: -405.386180364130439  |grad|_K:  1.354e-06  alpha:  9.336e-02  linmin:  8.883e-07  t[s]:   7057.69
	FillingsUpdate:  mu: -0.060089848  nElectrons: 233.000000  magneticMoment: [ Abs: 0.64599  Tot: +0.54275 ]
	SubspaceRotationAdjust: set factor to 2.52
ElecMinimize: Iter:  36  F: -405.386198518970161  |grad|_K:  9.903e-07  alpha:  4.462e-02  linmin: -4.267e-06  t[s]:   7180.69
	FillingsUpdate:  mu: -0.061522927  nElectrons: 233.000000  magneticMoment: [ Abs: 0.63811  Tot: +0.54324 ]
	SubspaceRotationAdjust: set factor to 1.89
ElecMinimize: Iter:  37  F: -405.386219685435208  |grad|_K:  1.381e-06  alpha:  9.788e-02  linmin:  1.867e-07  t[s]:   7304.23
	FillingsUpdate:  mu: -0.060457564  nElectrons: 233.000000  magneticMoment: [ Abs: 0.63505  Tot: +0.54661 ]
	SubspaceRotationAdjust: set factor to 2.6
ElecMinimize: Iter:  38  F: -405.386242109692546  |grad|_K:  9.597e-07  alpha:  5.484e-02  linmin:  4.268e-06  t[s]:   7426.95
	FillingsUpdate:  mu: -0.059144251  nElectrons: 233.000000  magneticMoment: [ Abs: 0.63502  Tot: +0.54912 ]
	SubspaceRotationAdjust: set factor to 2.33
ElecMinimize: Iter:  39  F: -405.386258473554278  |grad|_K:  1.143e-06  alpha:  8.097e-02  linmin: -1.052e-04  t[s]:   7548.47
	FillingsUpdate:  mu: -0.059706741  nElectrons: 233.000000  magneticMoment: [ Abs: 0.63356  Tot: +0.55055 ]
	SubspaceRotationAdjust: set factor to 3.25
ElecMinimize: Iter:  40  F: -405.386283055991385  |grad|_K:  8.955e-07  alpha:  8.376e-02  linmin:  5.174e-07  t[s]:   7669.86
	FillingsUpdate:  mu: -0.060989489  nElectrons: 233.000000  magneticMoment: [ Abs: 0.63305  Tot: +0.55051 ]
	SubspaceRotationAdjust: set factor to 3.24
ElecMinimize: Iter:  41  F: -405.386296047322560  |grad|_K:  9.723e-07  alpha:  7.441e-02  linmin: -3.517e-07  t[s]:   7789.70
	FillingsUpdate:  mu: -0.060457650  nElectrons: 233.000000  magneticMoment: [ Abs: 0.63670  Tot: +0.55102 ]
	SubspaceRotationAdjust: set factor to 4.36
ElecMinimize: Iter:  42  F: -405.386311949993512  |grad|_K:  7.637e-07  alpha:  7.711e-02  linmin: -6.966e-07  t[s]:   7910.33
	FillingsUpdate:  mu: -0.059509323  nElectrons: 233.000000  magneticMoment: [ Abs: 0.64099  Tot: +0.55125 ]
	SubspaceRotationAdjust: set factor to 3.94
ElecMinimize: Iter:  43  F: -405.386322404310874  |grad|_K:  9.189e-07  alpha:  8.206e-02  linmin: -1.234e-06  t[s]:   8029.23
	FillingsUpdate:  mu: -0.060374222  nElectrons: 233.000000  magneticMoment: [ Abs: 0.64305  Tot: +0.55038 ]
	SubspaceRotationAdjust: set factor to 4.02
ElecMinimize: Iter:  44  F: -405.386331857440609  |grad|_K:  6.781e-07  alpha:  5.110e-02  linmin: -2.124e-07  t[s]:   8149.35
	FillingsUpdate:  mu: -0.060741125  nElectrons: 233.000000  magneticMoment: [ Abs: 0.64574  Tot: +0.54925 ]
	SubspaceRotationAdjust: set factor to 4.02
ElecMinimize: Iter:  45  F: -405.386343050323376  |grad|_K:  7.841e-07  alpha:  1.117e-01  linmin:  2.171e-06  t[s]:   8269.22
	FillingsUpdate:  mu: -0.059743076  nElectrons: 233.000000  magneticMoment: [ Abs: 0.64816  Tot: +0.54920 ]
	SubspaceRotationAdjust: set factor to 3.84
ElecMinimize: Iter:  46  F: -405.386350411237970  |grad|_K:  7.627e-07  alpha:  5.506e-02  linmin: -3.896e-08  t[s]:   8388.48
	FillingsUpdate:  mu: -0.060030459  nElectrons: 233.000000  magneticMoment: [ Abs: 0.64693  Tot: +0.54812 ]
	SubspaceRotationAdjust: set factor to 5.4
ElecMinimize: Iter:  47  F: -405.386360943949398  |grad|_K:  6.266e-07  alpha:  8.317e-02  linmin:  1.359e-06  t[s]:   8508.90
	FillingsUpdate:  mu: -0.060823201  nElectrons: 233.000000  magneticMoment: [ Abs: 0.64309  Tot: +0.54732 ]
	SubspaceRotationAdjust: set factor to 4.26
ElecMinimize: Iter:  48  F: -405.386367874551524  |grad|_K:  8.361e-07  alpha:  8.120e-02  linmin:  1.867e-06  t[s]:   8629.20
	FillingsUpdate:  mu: -0.060009147  nElectrons: 233.000000  magneticMoment: [ Abs: 0.64082  Tot: +0.54811 ]
	SubspaceRotationAdjust: set factor to 4.32
ElecMinimize: Iter:  49  F: -405.386373956099305  |grad|_K:  5.932e-07  alpha:  4.014e-02  linmin: -2.440e-09  t[s]:   8750.08
	FillingsUpdate:  mu: -0.059868947  nElectrons: 233.000000  magneticMoment: [ Abs: 0.63541  Tot: +0.54905 ]
	SubspaceRotationAdjust: set factor to 4.89
ElecMinimize: Iter:  50  F: -405.386381728214189  |grad|_K:  6.184e-07  alpha:  1.014e-01  linmin: -3.924e-09  t[s]:   8869.87
	FillingsUpdate:  mu: -0.060678239  nElectrons: 233.000000  magneticMoment: [ Abs: 0.63122  Tot: +0.54914 ]
	SubspaceRotationAdjust: set factor to 4.22
ElecMinimize: Iter:  51  F: -405.386386301432310  |grad|_K:  6.757e-07  alpha:  5.486e-02  linmin: -2.370e-07  t[s]:   8990.80
	FillingsUpdate:  mu: -0.060227760  nElectrons: 233.000000  magneticMoment: [ Abs: 0.62857  Tot: +0.55010 ]
	SubspaceRotationAdjust: set factor to 5.49
ElecMinimize: Iter:  52  F: -405.386392429925536  |grad|_K:  4.866e-07  alpha:  6.155e-02  linmin: -2.550e-06  t[s]:   9111.83
	FillingsUpdate:  mu: -0.059847676  nElectrons: 233.000000  magneticMoment: [ Abs: 0.62839  Tot: +0.55051 ]
	SubspaceRotationAdjust: set factor to 4.8
ElecMinimize: Iter:  53  F: -405.386397544114459  |grad|_K:  5.960e-07  alpha:  9.875e-02  linmin: -9.696e-07  t[s]:   9231.65
	FillingsUpdate:  mu: -0.060548202  nElectrons: 233.000000  magneticMoment: [ Abs: 0.62828  Tot: +0.55005 ]
	SubspaceRotationAdjust: set factor to 4.53
ElecMinimize: Iter:  54  F: -405.386400768880094  |grad|_K:  5.455e-07  alpha:  4.141e-02  linmin: -8.167e-07  t[s]:   9351.69
	FillingsUpdate:  mu: -0.060382736  nElectrons: 233.000000  magneticMoment: [ Abs: 0.63184  Tot: +0.54964 ]
	SubspaceRotationAdjust: set factor to 6.38
ElecMinimize: Iter:  55  F: -405.386406138477184  |grad|_K:  4.594e-07  alpha:  8.256e-02  linmin: -3.610e-07  t[s]:   9472.30
	FillingsUpdate:  mu: -0.059818772  nElectrons: 233.000000  magneticMoment: [ Abs: 0.63577  Tot: +0.54956 ]
	SubspaceRotationAdjust: set factor to 4.8
ElecMinimize: Iter:  56  F: -405.386409474238462  |grad|_K:  6.186e-07  alpha:  7.249e-02  linmin: -7.086e-07  t[s]:   9594.93
	FillingsUpdate:  mu: -0.060395470  nElectrons: 233.000000  magneticMoment: [ Abs: 0.63804  Tot: +0.54882 ]
	SubspaceRotationAdjust: set factor to 4.6
ElecMinimize: Iter:  57  F: -405.386412450936859  |grad|_K:  4.342e-07  alpha:  3.545e-02  linmin: -3.630e-06  t[s]:   9714.47
	FillingsUpdate:  mu: -0.060509646  nElectrons: 233.000000  magneticMoment: [ Abs: 0.64206  Tot: +0.54841 ]
	SubspaceRotationAdjust: set factor to 4.91
ElecMinimize: Iter:  58  F: -405.386416707413332  |grad|_K:  4.528e-07  alpha:  1.033e-01  linmin:  6.509e-07  t[s]:   9828.51
	FillingsUpdate:  mu: -0.059941465  nElectrons: 233.000000  magneticMoment: [ Abs: 0.64440  Tot: +0.54881 ]
	SubspaceRotationAdjust: set factor to 4.41
ElecMinimize: Iter:  59  F: -405.386418902022967  |grad|_K:  4.661e-07  alpha:  4.931e-02  linmin:  4.112e-07  t[s]:   9943.15
	FillingsUpdate:  mu: -0.060234962  nElectrons: 233.000000  magneticMoment: [ Abs: 0.64483  Tot: +0.54888 ]
	SubspaceRotationAdjust: set factor to 5.67
ElecMinimize: Iter:  60  F: -405.386421893896056  |grad|_K:  3.503e-07  alpha:  6.328e-02  linmin:  4.250e-07  t[s]:  10058.53
	FillingsUpdate:  mu: -0.060564552  nElectrons: 233.000000  magneticMoment: [ Abs: 0.64341  Tot: +0.54914 ]
	SubspaceRotationAdjust: set factor to 4.3
ElecMinimize: Iter:  61  F: -405.386424435575464  |grad|_K:  4.490e-07  alpha:  9.517e-02  linmin:  5.008e-07  t[s]:  10172.37
	FillingsUpdate:  mu: -0.060083629  nElectrons: 233.000000  magneticMoment: [ Abs: 0.64293  Tot: +0.54971 ]
	SubspaceRotationAdjust: set factor to 4.13
ElecMinimize: Iter:  62  F: -405.386425910882224  |grad|_K:  3.261e-07  alpha:  3.396e-02  linmin:  8.633e-06  t[s]:  10292.49
	FillingsUpdate:  mu: -0.060054009  nElectrons: 233.000000  magneticMoment: [ Abs: 0.64073  Tot: +0.55003 ]
	SubspaceRotationAdjust: set factor to 5.42
ElecMinimize: Iter:  63  F: -405.386427915869376  |grad|_K:  3.002e-07  alpha:  8.711e-02  linmin: -3.088e-07  t[s]:  10407.71
	FillingsUpdate:  mu: -0.060439951  nElectrons: 233.000000  magneticMoment: [ Abs: 0.63904  Tot: +0.54989 ]
	SubspaceRotationAdjust: set factor to 4.78
ElecMinimize: Iter:  64  F: -405.386429005649291  |grad|_K:  3.449e-07  alpha:  5.546e-02  linmin: -2.120e-08  t[s]:  10524.54
	FillingsUpdate:  mu: -0.060174386  nElectrons: 233.000000  magneticMoment: [ Abs: 0.63815  Tot: +0.55000 ]
	SubspaceRotationAdjust: set factor to 5.53
ElecMinimize: Iter:  65  F: -405.386430503601105  |grad|_K:  2.564e-07  alpha:  5.777e-02  linmin: -2.450e-07  t[s]:  10643.79
	FillingsUpdate:  mu: -0.060021937  nElectrons: 233.000000  magneticMoment: [ Abs: 0.63820  Tot: +0.54988 ]
	SubspaceRotationAdjust: set factor to 5.03
ElecMinimize: Iter:  66  F: -405.386432006367727  |grad|_K:  2.982e-07  alpha:  1.048e-01  linmin: -1.577e-07  t[s]:  10761.95
	FillingsUpdate:  mu: -0.060374842  nElectrons: 233.000000  magneticMoment: [ Abs: 0.63821  Tot: +0.54951 ]
	SubspaceRotationAdjust: set factor to 4.4
ElecMinimize: Iter:  67  F: -405.386432872138187  |grad|_K:  2.945e-07  alpha:  4.443e-02  linmin: -3.112e-06  t[s]:  10881.78
	FillingsUpdate:  mu: -0.060188963  nElectrons: 233.000000  magneticMoment: [ Abs: 0.63990  Tot: +0.54935 ]
	SubspaceRotationAdjust: set factor to 5.76
ElecMinimize: Iter:  68  F: -405.386434157563258  |grad|_K:  2.286e-07  alpha:  6.777e-02  linmin:  1.940e-07  t[s]:  10999.93
	FillingsUpdate:  mu: -0.059940184  nElectrons: 233.000000  magneticMoment: [ Abs: 0.64199  Tot: +0.54935 ]
	SubspaceRotationAdjust: set factor to 4.59
ElecMinimize: Iter:  69  F: -405.386435265041541  |grad|_K:  3.121e-07  alpha:  9.733e-02  linmin:  2.578e-07  t[s]:  11112.25
	FillingsUpdate:  mu: -0.060268746  nElectrons: 233.000000  magneticMoment: [ Abs: 0.64271  Tot: +0.54910 ]
	SubspaceRotationAdjust: set factor to 4.11
ElecMinimize: Iter:  70  F: -405.386436009090346  |grad|_K:  2.356e-07  alpha:  3.486e-02  linmin: -1.218e-06  t[s]:  11223.72
	FillingsUpdate:  mu: -0.060314735  nElectrons: 233.000000  magneticMoment: [ Abs: 0.64412  Tot: +0.54919 ]
	SubspaceRotationAdjust: set factor to 5.2
ElecMinimize: Iter:  71  F: -405.386437142490195  |grad|_K:  2.317e-07  alpha:  9.347e-02  linmin:  8.522e-07  t[s]:  11335.41
	FillingsUpdate:  mu: -0.060013770  nElectrons: 233.000000  magneticMoment: [ Abs: 0.64497  Tot: +0.54952 ]
	SubspaceRotationAdjust: set factor to 4.16
ElecMinimize: Iter:  72  F: -405.386437803902595  |grad|_K:  2.737e-07  alpha:  5.682e-02  linmin:  2.561e-07  t[s]:  11446.73
	FillingsUpdate:  mu: -0.060204009  nElectrons: 233.000000  magneticMoment: [ Abs: 0.64460  Tot: +0.54970 ]
	SubspaceRotationAdjust: set factor to 4.82
ElecMinimize: Iter:  73  F: -405.386438886927294  |grad|_K:  2.101e-07  alpha:  6.640e-02  linmin:  3.286e-07  t[s]:  11557.82
	FillingsUpdate:  mu: -0.060361092  nElectrons: 233.000000  magneticMoment: [ Abs: 0.64334  Tot: +0.54980 ]
	SubspaceRotationAdjust: set factor to 4.29
ElecMinimize: Iter:  74  F: -405.386439836129057  |grad|_K:  2.330e-07  alpha:  9.873e-02  linmin:  1.656e-08  t[s]:  11668.99
	FillingsUpdate:  mu: -0.060094232  nElectrons: 233.000000  magneticMoment: [ Abs: 0.64280  Tot: +0.54997 ]
	SubspaceRotationAdjust: set factor to 3.82
ElecMinimize: Iter:  75  F: -405.386440329207630  |grad|_K:  1.918e-07  alpha:  4.176e-02  linmin:  5.857e-07  t[s]:  11780.11
	FillingsUpdate:  mu: -0.060150673  nElectrons: 233.000000  magneticMoment: [ Abs: 0.64105  Tot: +0.54980 ]
	SubspaceRotationAdjust: set factor to 4.53
ElecMinimize: Iter:  76  F: -405.386441009879775  |grad|_K:  1.658e-07  alpha:  8.496e-02  linmin: -4.590e-07  t[s]:  11891.13
	FillingsUpdate:  mu: -0.060372009  nElectrons: 233.000000  magneticMoment: [ Abs: 0.63957  Tot: +0.54950 ]
	SubspaceRotationAdjust: set factor to 3.77
ElecMinimize: Iter:  77  F: -405.386441490493439  |grad|_K:  2.094e-07  alpha:  8.005e-02  linmin:  3.364e-07  t[s]:  12002.19
	FillingsUpdate:  mu: -0.060177997  nElectrons: 233.000000  magneticMoment: [ Abs: 0.63880  Tot: +0.54940 ]
	SubspaceRotationAdjust: set factor to 4.4
ElecMinimize: Iter:  78  F: -405.386441996342398  |grad|_K:  1.562e-07  alpha:  5.295e-02  linmin: -6.004e-08  t[s]:  12115.19
	FillingsUpdate:  mu: -0.060113071  nElectrons: 233.000000  magneticMoment: [ Abs: 0.63837  Tot: +0.54927 ]
	SubspaceRotationAdjust: set factor to 3.92
ElecMinimize: Iter:  79  F: -405.386442568150756  |grad|_K:  1.678e-07  alpha:  1.074e-01  linmin: -4.453e-07  t[s]:  12227.50
	FillingsUpdate:  mu: -0.060313773  nElectrons: 233.000000  magneticMoment: [ Abs: 0.63823  Tot: +0.54912 ]
	SubspaceRotationAdjust: set factor to 3.86
ElecMinimize: Iter:  80  F: -405.386442867080746  |grad|_K:  1.519e-07  alpha:  4.855e-02  linmin: -4.689e-07  t[s]:  12339.21
	FillingsUpdate:  mu: -0.060241657  nElectrons: 233.000000  magneticMoment: [ Abs: 0.63900  Tot: +0.54922 ]
	SubspaceRotationAdjust: set factor to 5.12
ElecMinimize: Iter:  81  F: -405.386443244980626  |grad|_K:  1.192e-07  alpha:  7.497e-02  linmin: -1.033e-07  t[s]:  12450.76
	FillingsUpdate:  mu: -0.060089199  nElectrons: 233.000000  magneticMoment: [ Abs: 0.63997  Tot: +0.54940 ]
	SubspaceRotationAdjust: set factor to 4.25
ElecMinimize: Iter:  82  F: -405.386443491763146  |grad|_K:  1.547e-07  alpha:  7.953e-02  linmin: -1.315e-07  t[s]:  12562.04
	FillingsUpdate:  mu: -0.060235909  nElectrons: 233.000000  magneticMoment: [ Abs: 0.64056  Tot: +0.54942 ]
	SubspaceRotationAdjust: set factor to 4.19
ElecMinimize: Iter:  83  F: -405.386443715747021  |grad|_K:  1.107e-07  alpha:  4.293e-02  linmin: -5.639e-08  t[s]:  12672.75
	FillingsUpdate:  mu: -0.060274818  nElectrons: 233.000000  magneticMoment: [ Abs: 0.64148  Tot: +0.54953 ]
	SubspaceRotationAdjust: set factor to 4.37
ElecMinimize: Iter:  84  F: -405.386443998139782  |grad|_K:  1.214e-07  alpha:  1.057e-01  linmin:  1.551e-07  t[s]:  12783.85
	FillingsUpdate:  mu: -0.060116915  nElectrons: 233.000000  magneticMoment: [ Abs: 0.64216  Tot: +0.54970 ]
	SubspaceRotationAdjust: set factor to 3.75
ElecMinimize: Iter:  85  F: -405.386444179450564  |grad|_K:  1.284e-07  alpha:  5.654e-02  linmin:  3.078e-07  t[s]:  12894.46
	FillingsUpdate:  mu: -0.060190338  nElectrons: 233.000000  magneticMoment: [ Abs: 0.64239  Tot: +0.54974 ]
	SubspaceRotationAdjust: set factor to 5.36
ElecMinimize: Iter:  86  F: -405.386444438539570  |grad|_K:  9.756e-08  alpha:  7.217e-02  linmin:  5.845e-08  t[s]:  13009.80
	FillingsUpdate:  mu: -0.060296220  nElectrons: 233.000000  magneticMoment: [ Abs: 0.64201  Tot: +0.54967 ]
	SubspaceRotationAdjust: set factor to 4.34
ElecMinimize: Iter:  87  F: -405.386444635828354  |grad|_K:  1.294e-07  alpha:  9.515e-02  linmin:  1.995e-07  t[s]:  13129.13
	FillingsUpdate:  mu: -0.060154116  nElectrons: 233.000000  magneticMoment: [ Abs: 0.64175  Tot: +0.54969 ]
	SubspaceRotationAdjust: set factor to 4.15
ElecMinimize: Iter:  88  F: -405.386444779808699  |grad|_K:  1.005e-07  alpha:  3.953e-02  linmin:  1.855e-07  t[s]:  13250.71
	FillingsUpdate:  mu: -0.060141241  nElectrons: 233.000000  magneticMoment: [ Abs: 0.64066  Tot: +0.54953 ]
	SubspaceRotationAdjust: set factor to 5.49
ElecMinimize: Iter:  89  F: -405.386444987864991  |grad|_K:  9.400e-08  alpha:  9.522e-02  linmin:  1.435e-06  t[s]:  13371.34
	FillingsUpdate:  mu: -0.060261628  nElectrons: 233.000000  magneticMoment: [ Abs: 0.63984  Tot: +0.54936 ]
	SubspaceRotationAdjust: set factor to 4.69
ElecMinimize: Iter:  90  F: -405.386445100552919  |grad|_K:  1.111e-07  alpha:  5.878e-02  linmin: -1.759e-07  t[s]:  13490.11
	FillingsUpdate:  mu: -0.060169435  nElectrons: 233.000000  magneticMoment: [ Abs: 0.63918  Tot: +0.54931 ]
	SubspaceRotationAdjust: set factor to 5.24
ElecMinimize: Iter:  91  F: -405.386445250280303  |grad|_K:  8.435e-08  alpha:  5.559e-02  linmin:  2.765e-07  t[s]:  13610.60
	FillingsUpdate:  mu: -0.060156816  nElectrons: 233.000000  magneticMoment: [ Abs: 0.63881  Tot: +0.54931 ]
	SubspaceRotationAdjust: set factor to 5.99
ElecMinimize: Iter:  92  F: -405.386445414065179  |grad|_K:  8.609e-08  alpha:  1.055e-01  linmin: -6.104e-07  t[s]:  13730.33
	FillingsUpdate:  mu: -0.060269823  nElectrons: 233.000000  magneticMoment: [ Abs: 0.63880  Tot: +0.54932 ]
	SubspaceRotationAdjust: set factor to 4.75
ElecMinimize: Iter:  93  F: -405.386445510085309  |grad|_K:  1.027e-07  alpha:  5.918e-02  linmin: -6.640e-08  t[s]:  13851.78
	FillingsUpdate:  mu: -0.060182988  nElectrons: 233.000000  magneticMoment: [ Abs: 0.63934  Tot: +0.54948 ]
	SubspaceRotationAdjust: set factor to 4.8
ElecMinimize: Iter:  94  F: -405.386445609707948  |grad|_K:  7.347e-08  alpha:  4.342e-02  linmin: -2.775e-07  t[s]:  13971.92
ElecMinimize: Converged (|Delta F|<1.000000e-07 for 2 iters).
Setting wave functions to eigenvectors of Hamiltonian
Converging empty states (this may take a while): |deigs|: 5.097e-03
Vacuum energy after initial minimize, F = -405.386445609707948


-------- Electronic minimization -----------
	Linear fluid (dielectric constant: 78.4, screening length: 8.12261 Bohr) occupying 0.705791 of unit cell:	Completed after 23 iterations at t[s]:  14584.58
	FillingsUpdate:  mu: -0.132575752  nElectrons: 233.000000  magneticMoment: [ Abs: 0.63966  Tot: +0.54934 ]
ElecMinimize: Iter:   0  F: -405.395412104256309  |grad|_K:  6.963e-06  alpha:  1.000e+00
	Linear fluid (dielectric constant: 78.4, screening length: 8.12261 Bohr) occupying 0.725958 of unit cell:	Completed after 30 iterations at t[s]:  14708.24
	Linear fluid (dielectric constant: 78.4, screening length: 8.12261 Bohr) occupying 0.705826 of unit cell:	Completed after 25 iterations at t[s]:  14764.33
	FillingsUpdate:  mu: -0.132015647  nElectrons: 233.000000  magneticMoment: [ Abs: 0.64065  Tot: +0.54978 ]
	SubspaceRotationAdjust: set factor to 3.01
ElecMinimize: Iter:   1  F: -405.395577144127685  |grad|_K:  6.514e-06  alpha:  8.438e-03  linmin: -3.662e-04  t[s]:  14818.52
	Linear fluid (dielectric constant: 78.4, screening length: 8.12261 Bohr) occupying 0.705892 of unit cell:	Completed after 8 iterations at t[s]:  14867.33
ElecMinimize: 	Predicted alpha/alphaT>3.000000, increasing alphaT to 2.531544e-02.
	Linear fluid (dielectric constant: 78.4, screening length: 8.12261 Bohr) occupying 0.706022 of unit cell:	Completed after 9 iterations at t[s]:  14911.44
	Linear fluid (dielectric constant: 78.4, screening length: 8.12261 Bohr) occupying 0.706331 of unit cell:	Completed after 10 iterations at t[s]:  14956.07
	FillingsUpdate:  mu: -0.127427221  nElectrons: 233.000000  magneticMoment: [ Abs: 0.65096  Tot: +0.55326 ]
	SubspaceRotationAdjust: set factor to 2.39
ElecMinimize: Iter:   2  F: -405.396832859492520  |grad|_K:  4.712e-06  alpha:  6.732e-02  linmin: -2.754e-05  t[s]:  15010.19
	Linear fluid (dielectric constant: 78.4, screening length: 8.12261 Bohr) occupying 0.706586 of unit cell:	Completed after 9 iterations at t[s]:  15058.98
	Linear fluid (dielectric constant: 78.4, screening length: 8.12261 Bohr) occupying 0.706619 of unit cell:	Completed after 3 iterations at t[s]:  15098.76
	FillingsUpdate:  mu: -0.133366315  nElectrons: 233.000000  magneticMoment: [ Abs: 0.64304  Tot: +0.55088 ]
	SubspaceRotationAdjust: set factor to 2.08
ElecMinimize: Iter:   3  F: -405.397259625296499  |grad|_K:  4.121e-06  alpha:  7.649e-02  linmin: -4.507e-07  t[s]:  15152.75
	Linear fluid (dielectric constant: 78.4, screening length: 8.12261 Bohr) occupying 0.706837 of unit cell:	Completed after 10 iterations at t[s]:  15203.07
	Linear fluid (dielectric constant: 78.4, screening length: 8.12261 Bohr) occupying 0.706996 of unit cell:	Completed after 8 iterations at t[s]:  15247.64
	FillingsUpdate:  mu: -0.135253108  nElectrons: 233.000000  magneticMoment: [ Abs: 0.64022  Tot: +0.54939 ]
	SubspaceRotationAdjust: set factor to 1.4
ElecMinimize: Iter:   4  F: -405.397764733573638  |grad|_K:  4.002e-06  alpha:  1.347e-01  linmin: -4.178e-06  t[s]:  15302.75
	Linear fluid (dielectric constant: 78.4, screening length: 8.12261 Bohr) occupying 0.707330 of unit cell:	Completed after 14 iterations at t[s]:  15356.45
	Linear fluid (dielectric constant: 78.4, screening length: 8.12261 Bohr) occupying 0.707191 of unit cell:	Completed after 10 iterations at t[s]:  15400.93
	FillingsUpdate:  mu: -0.128876780  nElectrons: 233.000000  magneticMoment: [ Abs: 0.64758  Tot: +0.55188 ]
	SubspaceRotationAdjust: set factor to 1.01
ElecMinimize: Iter:   5  F: -405.398038880233344  |grad|_K:  2.807e-06  alpha:  7.797e-02  linmin:  1.796e-06  t[s]:  15454.16
	Linear fluid (dielectric constant: 78.4, screening length: 8.12261 Bohr) occupying 0.707263 of unit cell:	Completed after 7 iterations at t[s]:  15502.48
	Linear fluid (dielectric constant: 78.4, screening length: 8.12261 Bohr) occupying 0.707385 of unit cell:	Completed after 9 iterations at t[s]:  15547.83
	FillingsUpdate:  mu: -0.127193454  nElectrons: 233.000000  magneticMoment: [ Abs: 0.64944  Tot: +0.55211 ]
	SubspaceRotationAdjust: set factor to 0.69
ElecMinimize: Iter:   6  F: -405.398396574634319  |grad|_K:  2.864e-06  alpha:  2.104e-01  linmin:  3.842e-05  t[s]:  15601.94
	Linear fluid (dielectric constant: 78.4, screening length: 8.12261 Bohr) occupying 0.707537 of unit cell:	Completed after 10 iterations at t[s]:  15652.17
	Linear fluid (dielectric constant: 78.4, screening length: 8.12261 Bohr) occupying 0.707493 of unit cell:	Completed after 8 iterations at t[s]:  15695.30
	FillingsUpdate:  mu: -0.131598497  nElectrons: 233.000000  magneticMoment: [ Abs: 0.64245  Tot: +0.54933 ]
	SubspaceRotationAdjust: set factor to 0.797
ElecMinimize: Iter:   7  F: -405.398661236610337  |grad|_K:  2.092e-06  alpha:  1.480e-01  linmin:  1.986e-06  t[s]:  15748.97
	Linear fluid (dielectric constant: 78.4, screening length: 8.12261 Bohr) occupying 0.707549 of unit cell:	Completed after 8 iterations at t[s]:  15797.86
	Linear fluid (dielectric constant: 78.4, screening length: 8.12261 Bohr) occupying 0.707587 of unit cell:	Completed after 8 iterations at t[s]:  15841.96
	FillingsUpdate:  mu: -0.134845419  nElectrons: 233.000000  magneticMoment: [ Abs: 0.63842  Tot: +0.54748 ]
	SubspaceRotationAdjust: set factor to 0.662
ElecMinimize: Iter:   8  F: -405.398899543649350  |grad|_K:  2.211e-06  alpha:  2.519e-01  linmin:  3.396e-06  t[s]:  15897.55
	Linear fluid (dielectric constant: 78.4, screening length: 8.12261 Bohr) occupying 0.707694 of unit cell:	Completed after 10 iterations at t[s]:  15949.68
	Linear fluid (dielectric constant: 78.4, screening length: 8.12261 Bohr) occupying 0.707649 of unit cell:	Completed after 8 iterations at t[s]:  15992.23
	FillingsUpdate:  mu: -0.131063769  nElectrons: 233.000000  magneticMoment: [ Abs: 0.64341  Tot: +0.54992 ]
	SubspaceRotationAdjust: set factor to 1.02
ElecMinimize: Iter:   9  F: -405.399046580582819  |grad|_K:  1.357e-06  alpha:  1.410e-01  linmin:  7.234e-07  t[s]:  16045.14
	Linear fluid (dielectric constant: 78.4, screening length: 8.12261 Bohr) occupying 0.707648 of unit cell:	Completed after 8 iterations at t[s]:  16094.93
	Linear fluid (dielectric constant: 78.4, screening length: 8.12261 Bohr) occupying 0.707648 of unit cell:	Completed after 5 iterations at t[s]:  16135.06
	FillingsUpdate:  mu: -0.128229735  nElectrons: 233.000000  magneticMoment: [ Abs: 0.64742  Tot: +0.55156 ]
	SubspaceRotationAdjust: set factor to 1.04
ElecMinimize: Iter:  10  F: -405.399129023940532  |grad|_K:  1.413e-06  alpha:  2.048e-01  linmin: -2.850e-06  t[s]:  16189.19
	Linear fluid (dielectric constant: 78.4, screening length: 8.12261 Bohr) occupying 0.707583 of unit cell:	Completed after 8 iterations at t[s]:  16237.78
	Linear fluid (dielectric constant: 78.4, screening length: 8.12261 Bohr) occupying 0.707593 of unit cell:	Completed after 3 iterations at t[s]:  16277.89
	FillingsUpdate:  mu: -0.129425754  nElectrons: 233.000000  magneticMoment: [ Abs: 0.64603  Tot: +0.55124 ]
	SubspaceRotationAdjust: set factor to 1.41
ElecMinimize: Iter:  11  F: -405.399205391768987  |grad|_K:  9.813e-07  alpha:  1.730e-01  linmin:  2.340e-07  t[s]:  16329.60
	Linear fluid (dielectric constant: 78.4, screening length: 8.12261 Bohr) occupying 0.707532 of unit cell:	Completed after 8 iterations at t[s]:  16379.74
	Linear fluid (dielectric constant: 78.4, screening length: 8.12261 Bohr) occupying 0.707531 of unit cell:	Completed after 0 iterations at t[s]:  16418.02
	FillingsUpdate:  mu: -0.131589780  nElectrons: 233.000000  magneticMoment: [ Abs: 0.64341  Tot: +0.55032 ]
	SubspaceRotationAdjust: set factor to 1.3
ElecMinimize: Iter:  12  F: -405.399242159246626  |grad|_K:  1.040e-06  alpha:  1.754e-01  linmin: -6.650e-07  t[s]:  16470.65
	Linear fluid (dielectric constant: 78.4, screening length: 8.12261 Bohr) occupying 0.707460 of unit cell:	Completed after 7 iterations at t[s]:  16519.13
	Linear fluid (dielectric constant: 78.4, screening length: 8.12261 Bohr) occupying 0.707462 of unit cell:	Completed after 0 iterations at t[s]:  16556.99
	FillingsUpdate:  mu: -0.130594350  nElectrons: 233.000000  magneticMoment: [ Abs: 0.64489  Tot: +0.55092 ]
	SubspaceRotationAdjust: set factor to 1.58
ElecMinimize: Iter:  13  F: -405.399281938725267  |grad|_K:  7.454e-07  alpha:  1.683e-01  linmin:  3.965e-06  t[s]:  16608.35
	Linear fluid (dielectric constant: 78.4, screening length: 8.12261 Bohr) occupying 0.707429 of unit cell:	Completed after 5 iterations at t[s]:  16656.81
	Linear fluid (dielectric constant: 78.4, screening length: 8.12261 Bohr) occupying 0.707418 of unit cell:	Completed after 3 iterations at t[s]:  16697.14
	FillingsUpdate:  mu: -0.129325054  nElectrons: 233.000000  magneticMoment: [ Abs: 0.64677  Tot: +0.55160 ]
	SubspaceRotationAdjust: set factor to 1.28
ElecMinimize: Iter:  14  F: -405.399308381977846  |grad|_K:  8.693e-07  alpha:  2.227e-01  linmin:  3.375e-05  t[s]:  16750.03
	Linear fluid (dielectric constant: 78.4, screening length: 8.12261 Bohr) occupying 0.707349 of unit cell:	Completed after 8 iterations at t[s]:  16800.53
	Linear fluid (dielectric constant: 78.4, screening length: 8.12261 Bohr) occupying 0.707378 of unit cell:	Completed after 4 iterations at t[s]:  16840.44
	FillingsUpdate:  mu: -0.130700821  nElectrons: 233.000000  magneticMoment: [ Abs: 0.64506  Tot: +0.55104 ]
	SubspaceRotationAdjust: set factor to 1.59
ElecMinimize: Iter:  15  F: -405.399329815357646  |grad|_K:  5.949e-07  alpha:  1.321e-01  linmin:  8.734e-07  t[s]:  16894.01
	Linear fluid (dielectric constant: 78.4, screening length: 8.12261 Bohr) occupying 0.707365 of unit cell:	Completed after 3 iterations at t[s]:  16940.20
	Linear fluid (dielectric constant: 78.4, screening length: 8.12261 Bohr) occupying 0.707354 of unit cell:	Completed after 3 iterations at t[s]:  16982.15
	FillingsUpdate:  mu: -0.131295381  nElectrons: 233.000000  magneticMoment: [ Abs: 0.64433  Tot: +0.55081 ]
	SubspaceRotationAdjust: set factor to 1.4
ElecMinimize: Iter:  16  F: -405.399349088706970  |grad|_K:  6.372e-07  alpha:  2.497e-01  linmin: -5.419e-07  t[s]:  17034.59
	Linear fluid (dielectric constant: 78.4, screening length: 8.12261 Bohr) occupying 0.707345 of unit cell:	Completed after 7 iterations at t[s]:  17079.98
	Linear fluid (dielectric constant: 78.4, screening length: 8.12261 Bohr) occupying 0.707350 of unit cell:	Completed after 5 iterations at t[s]:  17118.00
	FillingsUpdate:  mu: -0.130101585  nElectrons: 233.000000  magneticMoment: [ Abs: 0.64588  Tot: +0.55136 ]
	SubspaceRotationAdjust: set factor to 1.36
ElecMinimize: Iter:  17  F: -405.399358978352438  |grad|_K:  4.685e-07  alpha:  1.129e-01  linmin:  1.450e-06  t[s]:  17166.55
	Linear fluid (dielectric constant: 78.4, screening length: 8.12261 Bohr) occupying 0.707347 of unit cell:	Completed after 3 iterations at t[s]:  17210.08
	Linear fluid (dielectric constant: 78.4, screening length: 8.12261 Bohr) occupying 0.707344 of unit cell:	Completed after 3 iterations at t[s]:  17246.76
	FillingsUpdate:  mu: -0.130052616  nElectrons: 233.000000  magneticMoment: [ Abs: 0.64598  Tot: +0.55136 ]
	SubspaceRotationAdjust: set factor to 1.72
ElecMinimize: Iter:  18  F: -405.399368527630315  |grad|_K:  3.608e-07  alpha:  2.003e-01  linmin: -2.074e-06  t[s]:  17295.51
	Linear fluid (dielectric constant: 78.4, screening length: 8.12261 Bohr) occupying 0.707337 of unit cell:	Completed after 7 iterations at t[s]:  17342.05
	Linear fluid (dielectric constant: 78.4, screening length: 8.12261 Bohr) occupying 0.707340 of unit cell:	Completed after 3 iterations at t[s]:  17380.05
	FillingsUpdate:  mu: -0.130805108  nElectrons: 233.000000  magneticMoment: [ Abs: 0.64506  Tot: +0.55101 ]
	SubspaceRotationAdjust: set factor to 1.47
ElecMinimize: Iter:  19  F: -405.399372062104419  |grad|_K:  3.190e-07  alpha:  1.239e-01  linmin:  1.266e-06  t[s]:  17429.09
	Linear fluid (dielectric constant: 78.4, screening length: 8.12261 Bohr) occupying 0.707340 of unit cell:	Completed after 2 iterations at t[s]:  17471.32
	Linear fluid (dielectric constant: 78.4, screening length: 8.12261 Bohr) occupying 0.707341 of unit cell:	Completed after 2 iterations at t[s]:  17507.71
	FillingsUpdate:  mu: -0.130638079  nElectrons: 233.000000  magneticMoment: [ Abs: 0.64537  Tot: +0.55107 ]
	SubspaceRotationAdjust: set factor to 1.72
ElecMinimize: Iter:  20  F: -405.399377186284937  |grad|_K:  2.753e-07  alpha:  2.329e-01  linmin:  8.375e-06  t[s]:  17557.28
	Linear fluid (dielectric constant: 78.4, screening length: 8.12261 Bohr) occupying 0.707345 of unit cell:	Completed after 3 iterations at t[s]:  17600.49
	Linear fluid (dielectric constant: 78.4, screening length: 8.12261 Bohr) occupying 0.707345 of unit cell:	Completed after 0 iterations at t[s]:  17637.11
	FillingsUpdate:  mu: -0.130088640  nElectrons: 233.000000  magneticMoment: [ Abs: 0.64606  Tot: +0.55131 ]
	SubspaceRotationAdjust: set factor to 1.3
ElecMinimize: Iter:  21  F: -405.399380613082030  |grad|_K:  3.020e-07  alpha:  2.078e-01  linmin:  1.429e-05  t[s]:  17690.17
	Linear fluid (dielectric constant: 78.4, screening length: 8.12261 Bohr) occupying 0.707345 of unit cell:	Completed after 4 iterations at t[s]:  17735.36
	Linear fluid (dielectric constant: 78.4, screening length: 8.12261 Bohr) occupying 0.707345 of unit cell:	Completed after 3 iterations at t[s]:  17774.26
	FillingsUpdate:  mu: -0.130580025  nElectrons: 233.000000  magneticMoment: [ Abs: 0.64551  Tot: +0.55112 ]
	SubspaceRotationAdjust: set factor to 1.29
ElecMinimize: Iter:  22  F: -405.399382386158436  |grad|_K:  1.781e-07  alpha:  9.685e-02  linmin:  2.439e-06  t[s]:  17826.16
	Linear fluid (dielectric constant: 78.4, screening length: 8.12261 Bohr) occupying 0.707346 of unit cell:	Completed after 2 iterations at t[s]:  17870.47
	Linear fluid (dielectric constant: 78.4, screening length: 8.12261 Bohr) occupying 0.707348 of unit cell:	Completed after 2 iterations at t[s]:  17908.50
	FillingsUpdate:  mu: -0.130676815  nElectrons: 233.000000  magneticMoment: [ Abs: 0.64535  Tot: +0.55107 ]
	SubspaceRotationAdjust: set factor to 1.42
ElecMinimize: Iter:  23  F: -405.399384216535225  |grad|_K:  1.724e-07  alpha:  2.672e-01  linmin: -4.308e-07  t[s]:  17960.30
	Linear fluid (dielectric constant: 78.4, screening length: 8.12261 Bohr) occupying 0.707357 of unit cell:	Completed after 3 iterations at t[s]:  18004.58
	Linear fluid (dielectric constant: 78.4, screening length: 8.12261 Bohr) occupying 0.707353 of unit cell:	Completed after 2 iterations at t[s]:  18042.62
	FillingsUpdate:  mu: -0.130311440  nElectrons: 233.000000  magneticMoment: [ Abs: 0.64579  Tot: +0.55122 ]
	SubspaceRotationAdjust: set factor to 1.35
ElecMinimize: Iter:  24  F: -405.399385238006914  |grad|_K:  1.549e-07  alpha:  1.587e-01  linmin:  6.261e-06  t[s]:  18094.35
	Linear fluid (dielectric constant: 78.4, screening length: 8.12261 Bohr) occupying 0.707357 of unit cell:	Completed after 3 iterations at t[s]:  18139.35
	Linear fluid (dielectric constant: 78.4, screening length: 8.12261 Bohr) occupying 0.707357 of unit cell:	Completed after 0 iterations at t[s]:  18175.60
	FillingsUpdate:  mu: -0.130429067  nElectrons: 233.000000  magneticMoment: [ Abs: 0.64559  Tot: +0.55115 ]
	SubspaceRotationAdjust: set factor to 1.76
ElecMinimize: Iter:  25  F: -405.399386218797815  |grad|_K:  1.090e-07  alpha:  1.888e-01  linmin: -3.457e-05  t[s]:  18226.76
	Linear fluid (dielectric constant: 78.4, screening length: 8.12261 Bohr) occupying 0.707360 of unit cell:	Completed after 2 iterations at t[s]:  18271.10
	Linear fluid (dielectric constant: 78.4, screening length: 8.12261 Bohr) occupying 0.707360 of unit cell:	Completed after 0 iterations at t[s]:  18307.27
	FillingsUpdate:  mu: -0.130667960  nElectrons: 233.000000  magneticMoment: [ Abs: 0.64532  Tot: +0.55105 ]
	SubspaceRotationAdjust: set factor to 1.38
ElecMinimize: Iter:  26  F: -405.399386688193033  |grad|_K:  1.338e-07  alpha:  1.723e-01  linmin: -3.352e-05  t[s]:  18358.19
	Linear fluid (dielectric constant: 78.4, screening length: 8.12261 Bohr) occupying 0.707367 of unit cell:	Completed after 2 iterations at t[s]:  18402.25
	Linear fluid (dielectric constant: 78.4, screening length: 8.12261 Bohr) occupying 0.707365 of unit cell:	Completed after 1 iterations at t[s]:  18440.01
	FillingsUpdate:  mu: -0.130422987  nElectrons: 233.000000  magneticMoment: [ Abs: 0.64553  Tot: +0.55114 ]
[...]
disp Ti   0.000000000000000   0.000000000000000   0.000000000000000
disp O  -0.000921586202433   0.000868349283575   0.000321067585710
disp O  -0.001261810263089   0.001217263593743  -0.000123205965913
disp O   0.000443227209579  -0.000281508273741  -0.000547908746708
disp H  -0.000341009662780   0.000317929653676   0.012024672503202
disp H  -0.006764641491684  -0.000269437906931   0.004455172616871
disp H   0.000530806246010   0.006769975576853   0.004602589403750

Real mode 15:
Frequency: 0.007001 Eh [ 1537 cm^-1 ]
Degeneracy: 1 of 1
IR intensity: 0.1040 e^2/amu [ 101.4 km/mol ]
Displacements:
disp C   0.000000000000000   0.000000000000000   0.000000000000000
disp C   0.000000000000000   0.000000000000000   0.000000000000000
disp C   0.000000000000000   0.000000000000000   0.000000000000000
disp C   0.000000000000000   0.000000000000000   0.000000000000000
disp C   0.000000000000000   0.000000000000000   0.000000000000000
disp C   0.000000000000000   0.000000000000000   0.000000000000000
disp C   0.000000000000000   0.000000000000000   0.000000000000000
disp C   0.000000000000000   0.000000000000000   0.000000000000000
disp C   0.000000000000000   0.000000000000000   0.000000000000000
disp C   0.000000000000000   0.000000000000000   0.000000000000000
disp C   0.000000000000000   0.000000000000000   0.000000000000000
disp C   0.000000000000000   0.000000000000000   0.000000000000000
disp C   0.000000000000000   0.000000000000000   0.000000000000000
disp C   0.000000000000000   0.000000000000000   0.000000000000000
disp C   0.000000000000000   0.000000000000000   0.000000000000000
disp C   0.000000000000000   0.000000000000000   0.000000000000000
disp C   0.000000000000000   0.000000000000000   0.000000000000000
disp C   0.000000000000000   0.000000000000000   0.000000000000000
disp C   0.000000000000000   0.000000000000000   0.000000000000000
disp C   0.000000000000000   0.000000000000000   0.000000000000000
disp C   0.000000000000000   0.000000000000000   0.000000000000000
disp C   0.000000000000000   0.000000000000000   0.000000000000000
disp C   0.000000000000000   0.000000000000000   0.000000000000000
disp C   0.000000000000000   0.000000000000000   0.000000000000000
disp C   0.000000000000000   0.000000000000000   0.000000000000000
disp C   0.000000000000000   0.000000000000000   0.000000000000000
disp C   0.000000000000000   0.000000000000000   0.000000000000000
disp C   0.000000000000000   0.000000000000000   0.000000000000000
disp C   0.000000000000000   0.000000000000000   0.000000000000000
disp C   0.000000000000000   0.000000000000000   0.000000000000000
disp C   0.000000000000000   0.000000000000000   0.000000000000000
disp C   0.000000000000000   0.000000000000000   0.000000000000000
disp C   0.000000000000000   0.000000000000000   0.000000000000000
disp C   0.000000000000000   0.000000000000000   0.000000000000000
disp C   0.000000000000000   0.000000000000000   0.000000000000000
disp C   0.000000000000000   0.000000000000000   0.000000000000000
disp C   0.000000000000000   0.000000000000000   0.000000000000000
disp C   0.000000000000000   0.000000000000000   0.000000000000000
disp C   0.000000000000000   0.000000000000000   0.000000000000000
disp C   0.000000000000000   0.000000000000000   0.000000000000000
disp C   0.000000000000000   0.000000000000000   0.000000000000000
disp C   0.000000000000000   0.000000000000000   0.000000000000000
disp C   0.000000000000000   0.000000000000000   0.000000000000000
disp C   0.000000000000000   0.000000000000000   0.000000000000000
disp C  -0.001181870778419   0.001043287957616   0.000803529298355
disp N   0.000000000000000   0.000000000000000   0.000000000000000
disp N   0.000000000000000   0.000000000000000   0.000000000000000
disp N   0.000000000000000   0.000000000000000   0.000000000000000
disp N   0.000000000000000   0.000000000000000   0.000000000000000
disp Ti   0.000000000000000   0.000000000000000   0.000000000000000
disp O   0.000370166358369  -0.000345648963077   0.000096700636090
disp O   0.000512694814541  -0.000511159032069   0.000069794309371
disp O   0.000687089954377  -0.000555654841520  -0.000601836275870
disp H   0.000636021647551  -0.001214873310058  -0.010017330117357
disp H  -0.012384605333373   0.000606836620908   0.006160421001247
disp H  -0.000162000360663   0.011994092899756   0.006195054327053

Real mode 16:
Frequency: 0.011066 Eh [ 2429 cm^-1 ]
Degeneracy: 1 of 1
IR intensity: 4.3628 e^2/amu [ 4253.2 km/mol ]
Displacements:
disp C   0.000000000000000   0.000000000000000   0.000000000000000
disp C   0.000000000000000   0.000000000000000   0.000000000000000
disp C   0.000000000000000   0.000000000000000   0.000000000000000
disp C   0.000000000000000   0.000000000000000   0.000000000000000
disp C   0.000000000000000   0.000000000000000   0.000000000000000
disp C   0.000000000000000   0.000000000000000   0.000000000000000
disp C   0.000000000000000   0.000000000000000   0.000000000000000
disp C   0.000000000000000   0.000000000000000   0.000000000000000
disp C   0.000000000000000   0.000000000000000   0.000000000000000
disp C   0.000000000000000   0.000000000000000   0.000000000000000
disp C   0.000000000000000   0.000000000000000   0.000000000000000
disp C   0.000000000000000   0.000000000000000   0.000000000000000
disp C   0.000000000000000   0.000000000000000   0.000000000000000
disp C   0.000000000000000   0.000000000000000   0.000000000000000
disp C   0.000000000000000   0.000000000000000   0.000000000000000
disp C   0.000000000000000   0.000000000000000   0.000000000000000
disp C   0.000000000000000   0.000000000000000   0.000000000000000
disp C   0.000000000000000   0.000000000000000   0.000000000000000
disp C   0.000000000000000   0.000000000000000   0.000000000000000
disp C   0.000000000000000   0.000000000000000   0.000000000000000
disp C   0.000000000000000   0.000000000000000   0.000000000000000
disp C   0.000000000000000   0.000000000000000   0.000000000000000
disp C   0.000000000000000   0.000000000000000   0.000000000000000
disp C   0.000000000000000   0.000000000000000   0.000000000000000
disp C   0.000000000000000   0.000000000000000   0.000000000000000
disp C   0.000000000000000   0.000000000000000   0.000000000000000
disp C   0.000000000000000   0.000000000000000   0.000000000000000
disp C   0.000000000000000   0.000000000000000   0.000000000000000
disp C   0.000000000000000   0.000000000000000   0.000000000000000
disp C   0.000000000000000   0.000000000000000   0.000000000000000
disp C   0.000000000000000   0.000000000000000   0.000000000000000
disp C   0.000000000000000   0.000000000000000   0.000000000000000
disp C   0.000000000000000   0.000000000000000   0.000000000000000
disp C   0.000000000000000   0.000000000000000   0.000000000000000
disp C   0.000000000000000   0.000000000000000   0.000000000000000
disp C   0.000000000000000   0.000000000000000   0.000000000000000
disp C   0.000000000000000   0.000000000000000   0.000000000000000
disp C   0.000000000000000   0.000000000000000   0.000000000000000
disp C   0.000000000000000   0.000000000000000   0.000000000000000
disp C   0.000000000000000   0.000000000000000   0.000000000000000
disp C   0.000000000000000   0.000000000000000   0.000000000000000
disp C   0.000000000000000   0.000000000000000   0.000000000000000
disp C   0.000000000000000   0.000000000000000   0.000000000000000
disp C   0.000000000000000   0.000000000000000   0.000000000000000
disp C   0.000285317086478  -0.000259785797709  -0.000415493208362
disp N   0.000000000000000   0.000000000000000   0.000000000000000
disp N   0.000000000000000   0.000000000000000   0.000000000000000
disp N   0.000000000000000   0.000000000000000   0.000000000000000
disp N   0.000000000000000   0.000000000000000   0.000000000000000
disp Ti   0.000000000000000   0.000000000000000   0.000000000000000
disp O   0.001125552502213  -0.001089570772690   0.000317211183732
disp O  -0.000155486474924   0.000130311141211   0.000109938219231
disp O  -0.000088999668542   0.000043969088357  -0.000092383939344
disp H  -0.016468346262675   0.014941849733965  -0.001503794061246
disp H  -0.000496540363683   0.000903711982438   0.000413577086702
disp H  -0.000799640197322   0.000317292607126   0.000194770552006

Real mode 17:
Frequency: 0.016969 Eh [ 3724 cm^-1 ]
Degeneracy: 1 of 1
IR intensity: 0.2334 e^2/amu [ 227.5 km/mol ]
Displacements:
disp C   0.000000000000000   0.000000000000000   0.000000000000000
disp C   0.000000000000000   0.000000000000000   0.000000000000000
disp C   0.000000000000000   0.000000000000000   0.000000000000000
disp C   0.000000000000000   0.000000000000000   0.000000000000000
disp C   0.000000000000000   0.000000000000000   0.000000000000000
disp C   0.000000000000000   0.000000000000000   0.000000000000000
disp C   0.000000000000000   0.000000000000000   0.000000000000000
disp C   0.000000000000000   0.000000000000000   0.000000000000000
disp C   0.000000000000000   0.000000000000000   0.000000000000000
disp C   0.000000000000000   0.000000000000000   0.000000000000000
disp C   0.000000000000000   0.000000000000000   0.000000000000000
disp C   0.000000000000000   0.000000000000000   0.000000000000000
disp C   0.000000000000000   0.000000000000000   0.000000000000000
disp C   0.000000000000000   0.000000000000000   0.000000000000000
disp C   0.000000000000000   0.000000000000000   0.000000000000000
disp C   0.000000000000000   0.000000000000000   0.000000000000000
disp C   0.000000000000000   0.000000000000000   0.000000000000000
disp C   0.000000000000000   0.000000000000000   0.000000000000000
disp C   0.000000000000000   0.000000000000000   0.000000000000000
disp C   0.000000000000000   0.000000000000000   0.000000000000000
disp C   0.000000000000000   0.000000000000000   0.000000000000000
disp C   0.000000000000000   0.000000000000000   0.000000000000000
disp C   0.000000000000000   0.000000000000000   0.000000000000000
disp C   0.000000000000000   0.000000000000000   0.000000000000000
disp C   0.000000000000000   0.000000000000000   0.000000000000000
disp C   0.000000000000000   0.000000000000000   0.000000000000000
disp C   0.000000000000000   0.000000000000000   0.000000000000000
disp C   0.000000000000000   0.000000000000000   0.000000000000000
disp C   0.000000000000000   0.000000000000000   0.000000000000000
disp C   0.000000000000000   0.000000000000000   0.000000000000000
disp C   0.000000000000000   0.000000000000000   0.000000000000000
disp C   0.000000000000000   0.000000000000000   0.000000000000000
disp C   0.000000000000000   0.000000000000000   0.000000000000000
disp C   0.000000000000000   0.000000000000000   0.000000000000000
disp C   0.000000000000000   0.000000000000000   0.000000000000000
disp C   0.000000000000000   0.000000000000000   0.000000000000000
disp C   0.000000000000000   0.000000000000000   0.000000000000000
disp C   0.000000000000000   0.000000000000000   0.000000000000000
disp C   0.000000000000000   0.000000000000000   0.000000000000000
disp C   0.000000000000000   0.000000000000000   0.000000000000000
disp C   0.000000000000000   0.000000000000000   0.000000000000000
disp C   0.000000000000000   0.000000000000000   0.000000000000000
disp C   0.000000000000000   0.000000000000000   0.000000000000000
disp C   0.000000000000000   0.000000000000000   0.000000000000000
disp C   0.000008975051249  -0.000018952981524   0.000009651362119
disp N   0.000000000000000   0.000000000000000   0.000000000000000
disp N   0.000000000000000   0.000000000000000   0.000000000000000
disp N   0.000000000000000   0.000000000000000   0.000000000000000
disp N   0.000000000000000   0.000000000000000   0.000000000000000
disp Ti   0.000000000000000   0.000000000000000   0.000000000000000
disp O   0.000037008015937  -0.000047175664336  -0.000002150686378
disp O   0.000000091883024  -0.000010640849112  -0.000000890715138
disp O  -0.000452479414695   0.000753632213517   0.000773369582285
disp H  -0.000831804598024   0.000611692144029  -0.000064633261700
disp H  -0.005081796648374  -0.015902501661843  -0.006979255842807
disp H   0.012307258108789   0.003691731363760  -0.005370480995561

Real mode 18:
Frequency: 0.017277 Eh [ 3792 cm^-1 ]
Degeneracy: 1 of 1
IR intensity: 0.1446 e^2/amu [ 141.0 km/mol ]
Displacements:
disp C   0.000000000000000   0.000000000000000   0.000000000000000
disp C   0.000000000000000   0.000000000000000   0.000000000000000
disp C   0.000000000000000   0.000000000000000   0.000000000000000
disp C   0.000000000000000   0.000000000000000   0.000000000000000
disp C   0.000000000000000   0.000000000000000   0.000000000000000
disp C   0.000000000000000   0.000000000000000   0.000000000000000
disp C   0.000000000000000   0.000000000000000   0.000000000000000
disp C   0.000000000000000   0.000000000000000   0.000000000000000
disp C   0.000000000000000   0.000000000000000   0.000000000000000
disp C   0.000000000000000   0.000000000000000   0.000000000000000
disp C   0.000000000000000   0.000000000000000   0.000000000000000
disp C   0.000000000000000   0.000000000000000   0.000000000000000
disp C   0.000000000000000   0.000000000000000   0.000000000000000
disp C   0.000000000000000   0.000000000000000   0.000000000000000
disp C   0.000000000000000   0.000000000000000   0.000000000000000
disp C   0.000000000000000   0.000000000000000   0.000000000000000
disp C   0.000000000000000   0.000000000000000   0.000000000000000
disp C   0.000000000000000   0.000000000000000   0.000000000000000
disp C   0.000000000000000   0.000000000000000   0.000000000000000
disp C   0.000000000000000   0.000000000000000   0.000000000000000
disp C   0.000000000000000   0.000000000000000   0.000000000000000
disp C   0.000000000000000   0.000000000000000   0.000000000000000
disp C   0.000000000000000   0.000000000000000   0.000000000000000
disp C   0.000000000000000   0.000000000000000   0.000000000000000
disp C   0.000000000000000   0.000000000000000   0.000000000000000
disp C   0.000000000000000   0.000000000000000   0.000000000000000
disp C   0.000000000000000   0.000000000000000   0.000000000000000
disp C   0.000000000000000   0.000000000000000   0.000000000000000
disp C   0.000000000000000   0.000000000000000   0.000000000000000
disp C   0.000000000000000   0.000000000000000   0.000000000000000
disp C   0.000000000000000   0.000000000000000   0.000000000000000
disp C   0.000000000000000   0.000000000000000   0.000000000000000
disp C   0.000000000000000   0.000000000000000   0.000000000000000
disp C   0.000000000000000   0.000000000000000   0.000000000000000
disp C   0.000000000000000   0.000000000000000   0.000000000000000
disp C   0.000000000000000   0.000000000000000   0.000000000000000
disp C   0.000000000000000   0.000000000000000   0.000000000000000
disp C   0.000000000000000   0.000000000000000   0.000000000000000
disp C   0.000000000000000   0.000000000000000   0.000000000000000
disp C   0.000000000000000   0.000000000000000   0.000000000000000
disp C   0.000000000000000   0.000000000000000   0.000000000000000
disp C   0.000000000000000   0.000000000000000   0.000000000000000
disp C   0.000000000000000   0.000000000000000   0.000000000000000
disp C   0.000000000000000   0.000000000000000   0.000000000000000
disp C   0.000014695006669  -0.000006099481564   0.000014359305067
disp N   0.000000000000000   0.000000000000000   0.000000000000000
disp N   0.000000000000000   0.000000000000000   0.000000000000000
disp N   0.000000000000000   0.000000000000000   0.000000000000000
disp N   0.000000000000000   0.000000000000000   0.000000000000000
disp Ti   0.000000000000000   0.000000000000000   0.000000000000000
disp O   0.000013979374989  -0.000010668438442   0.000003819737110
disp O   0.000010865999836  -0.000008643140725   0.000010370162001
disp O   0.001200651330711   0.001023383554463  -0.000099311338916
disp H   0.000032165880949  -0.000017517748346  -0.000033245048678
disp H  -0.003308157437346  -0.011976607257293  -0.005584890101873
disp H  -0.015780328775979  -0.004318939139614   0.007164582631134

Vibrational free energy components at T = 298 K:
	ZPE:          0.046253
	Evib:         0.050337
	TSvib:        0.007153
	Avib:         0.043184


Dumping 'jdft.n_up' ... done
Dumping 'jdft.n_dn' ... done
Dumping 'jdft.tau_up' ... done
Dumping 'jdft.tau_dn' ... done
Dumping 'jdft.eigenvals' ... done
Dumping 'jdft.eigStats' ... 
	eMin: -2.260987 at state 0 ( [ +0.000000 +0.000000 +0.000000 ] spin 1 )
	HOMO: -0.131135 at state 3 ( [ +0.333333 +0.000000 +0.000000 ] spin 1 )
	mu  : -0.130475
	LUMO: -0.130345 at state 1 ( [ +0.000000 +0.333333 +0.000000 ] spin 1 )
	eMax: +0.022705 at state 9 ( [ +0.000000 +0.000000 +0.000000 ] spin -1 )
	HOMO-LUMO gap: +0.000790
	Optical gap  : +0.011154 at state 3 ( [ +0.333333 +0.000000 +0.000000 ] spin 1 )
Dumping 'jdft.kPts' ... done
Dumping 'jdft.dosUp' ... done.
Dumping 'jdft.dosDn' ... done.
End date and time: Thu Nov 10 02:29:10 2022  (Duration: 0-13:20:19.82)
Done!

PROFILER:             augmentDensityGrid     0.821641 +/-     1.149851 s, 3410 calls,   2801.796659 s total
PROFILER:         augmentDensityGridGrad     0.473813 +/-     0.568228 s, 1925 calls,    912.090397 s total
PROFILER:        augmentDensitySpherical     0.000227 +/-     0.000306 s, 3410 calls,      0.773725 s total
PROFILER:    augmentDensitySphericalGrad     0.000210 +/-     0.000283 s, 2540 calls,      0.532667 s total
PROFILER:                 augmentOverlap     1.325748 +/-     1.936714 s, 7555 calls,  10016.023074 s total
PROFILER:        ColumnBundle::randomize     0.005255 +/-     0.000000 s,    1 calls,      0.005255 s total
PROFILER:                     diagouterI    14.451498 +/-     2.028077 s,  685 calls,   9899.276439 s total
PROFILER:              EdensityAndVscloc     5.971700 +/-     4.210204 s,  683 calls,   4078.671370 s total
PROFILER:                     EnlAndGrad     0.000865 +/-     0.001318 s, 3900 calls,      3.371991 s total
PROFILER:            ExCorrCommunication     0.097416 +/-     0.196951 s, 4342 calls,    422.981072 s total
PROFILER:               ExCorrFunctional     0.024459 +/-     0.004734 s,  750 calls,     18.344265 s total
PROFILER:                    ExCorrTotal     0.802300 +/-     0.377539 s,  750 calls,    601.725257 s total
PROFILER:                   Idag_DiagV_I    24.490342 +/-     9.554798 s,  486 calls,  11902.306165 s total
PROFILER:                    initWeights     1.819800 +/-     0.000000 s,    1 calls,      1.819800 s total
PROFILER:                    inv(matrix)     0.001866 +/-     0.003533 s,  633 calls,      1.180934 s total
PROFILER:            matrix::diagonalize     0.005881 +/-     0.004035 s, 1143 calls,      6.721976 s total
PROFILER:                    matrix::set     0.000001 +/-     0.000002 s, 73010 calls,      0.105785 s total
PROFILER:            orthoMatrix(matrix)     0.000984 +/-     0.002321 s,  735 calls,      0.723199 s total
PROFILER:     RadialFunctionR::transform     0.031595 +/-     0.244275 s,  151 calls,      4.770858 s total
PROFILER:                    reduceKmesh     0.000000 +/-     0.000000 s,    1 calls,      0.000000 s total
PROFILER:   VanDerWaalsD3::energyAndGrad     0.038944 +/-     0.007284 s,   45 calls,      1.752495 s total
PROFILER:               WavefunctionDrag    26.402631 +/-     0.436109 s,   22 calls,    580.857878 s total
PROFILER:                            Y*M     0.596918 +/-     0.754598 s, 13057 calls,   7793.956562 s total
PROFILER:                          Y1^Y2     0.611795 +/-     0.786644 s, 9671 calls,   5916.671386 s total

MEMUSAGE:                   ColumnBundle     1.365987 GB
MEMUSAGE:        complexScalarFieldTilde     0.024719 GB
MEMUSAGE:                    IndexArrays     0.023178 GB
MEMUSAGE:                         matrix     0.020862 GB
MEMUSAGE:                           misc     0.051230 GB
MEMUSAGE:                    ScalarField     0.395508 GB
MEMUSAGE:               ScalarFieldTilde     0.262436 GB
MEMUSAGE:                          Total     1.683400 GB
