
*************** JDFTx 1.7.0 (git hash 5f12716a) ***************

Start date and time: Tue Jul 26 07:58:09 2022
Executable /home/nisi6161/jdftx_alpine/build/jdftx with command-line: -i in
Running on hosts (process indices):  c3cpu-a2-u13-1.rc.int.colorado.edu (0-17)
Divided in process groups (process indices):  0 (0)  1 (1)  2 (2)  3 (3)  4 (4)  5 (5)  6 (6)  7 (7)  8 (8)  9 (9)  10 (10)  11 (11)  12 (12)  13 (13)  14 (14)  15 (15)  16 (16)  17 (17)
Resource initialization completed at t[s]:      0.00
Run totals: 18 processes, 64 threads, 0 GPUs


Input parsed successfully to the following command list (including defaults):

basis kpoint-dependent
converge-empty-states yes
coords-type Cartesian
core-overlap-check none
coulomb-interaction Periodic
davidson-band-ratio 1.1
density-of-states Etol 1.000000e-06 Esigma 1.000000e-03 \
		Complete \
	Total \
	OrthoOrbital C 1   s \
	OrthoOrbital C 1   p \
	OrthoOrbital C 1   px \
	OrthoOrbital C 1   py \
	OrthoOrbital C 1   pz \
	OrthoOrbital C 2   s \
	OrthoOrbital C 2   p \
	OrthoOrbital C 2   px \
	OrthoOrbital C 2   py \
	OrthoOrbital C 2   pz \
	OrthoOrbital C 3   s \
	OrthoOrbital C 3   p \
	OrthoOrbital C 3   px \
	OrthoOrbital C 3   py \
	OrthoOrbital C 3   pz \
	OrthoOrbital C 4   s \
	OrthoOrbital C 4   p \
	OrthoOrbital C 4   px \
	OrthoOrbital C 4   py \
	OrthoOrbital C 4   pz \
	OrthoOrbital C 5   s \
	OrthoOrbital C 5   p \
	OrthoOrbital C 5   px \
	OrthoOrbital C 5   py \
	OrthoOrbital C 5   pz \
	OrthoOrbital C 6   s \
	OrthoOrbital C 6   p \
	OrthoOrbital C 6   px \
	OrthoOrbital C 6   py \
	OrthoOrbital C 6   pz \
	OrthoOrbital C 7   s \
	OrthoOrbital C 7   p \
	OrthoOrbital C 7   px \
	OrthoOrbital C 7   py \
	OrthoOrbital C 7   pz \
	OrthoOrbital C 8   s \
	OrthoOrbital C 8   p \
	OrthoOrbital C 8   px \
	OrthoOrbital C 8   py \
	OrthoOrbital C 8   pz \
	OrthoOrbital C 9   s \
	OrthoOrbital C 9   p \
	OrthoOrbital C 9   px \
	OrthoOrbital C 9   py \
	OrthoOrbital C 9   pz \
	OrthoOrbital C 10   s \
	OrthoOrbital C 10   p \
	OrthoOrbital C 10   px \
	OrthoOrbital C 10   py \
	OrthoOrbital C 10   pz \
	OrthoOrbital C 11   s \
	OrthoOrbital C 11   p \
	OrthoOrbital C 11   px \
	OrthoOrbital C 11   py \
	OrthoOrbital C 11   pz \
	OrthoOrbital C 12   s \
	OrthoOrbital C 12   p \
	OrthoOrbital C 12   px \
	OrthoOrbital C 12   py \
	OrthoOrbital C 12   pz \
	OrthoOrbital C 13   s \
	OrthoOrbital C 13   p \
	OrthoOrbital C 13   px \
	OrthoOrbital C 13   py \
	OrthoOrbital C 13   pz \
	OrthoOrbital C 14   s \
	OrthoOrbital C 14   p \
	OrthoOrbital C 14   px \
	OrthoOrbital C 14   py \
	OrthoOrbital C 14   pz \
	OrthoOrbital C 15   s \
	OrthoOrbital C 15   p \
	OrthoOrbital C 15   px \
	OrthoOrbital C 15   py \
	OrthoOrbital C 15   pz \
	OrthoOrbital C 16   s \
	OrthoOrbital C 16   p \
	OrthoOrbital C 16   px \
	OrthoOrbital C 16   py \
	OrthoOrbital C 16   pz \
	OrthoOrbital C 17   s \
	OrthoOrbital C 17   p \
	OrthoOrbital C 17   px \
	OrthoOrbital C 17   py \
	OrthoOrbital C 17   pz \
	OrthoOrbital C 18   s \
	OrthoOrbital C 18   p \
	OrthoOrbital C 18   px \
	OrthoOrbital C 18   py \
	OrthoOrbital C 18   pz \
	OrthoOrbital C 19   s \
	OrthoOrbital C 19   p \
	OrthoOrbital C 19   px \
	OrthoOrbital C 19   py \
	OrthoOrbital C 19   pz \
	OrthoOrbital C 20   s \
	OrthoOrbital C 20   p \
	OrthoOrbital C 20   px \
	OrthoOrbital C 20   py \
	OrthoOrbital C 20   pz \
	OrthoOrbital C 21   s \
	OrthoOrbital C 21   p \
	OrthoOrbital C 21   px \
	OrthoOrbital C 21   py \
	OrthoOrbital C 21   pz \
	OrthoOrbital C 22   s \
	OrthoOrbital C 22   p \
	OrthoOrbital C 22   px \
	OrthoOrbital C 22   py \
	OrthoOrbital C 22   pz \
	OrthoOrbital C 23   s \
	OrthoOrbital C 23   p \
	OrthoOrbital C 23   px \
	OrthoOrbital C 23   py \
	OrthoOrbital C 23   pz \
	OrthoOrbital C 24   s \
	OrthoOrbital C 24   p \
	OrthoOrbital C 24   px \
	OrthoOrbital C 24   py \
	OrthoOrbital C 24   pz \
	OrthoOrbital C 25   s \
	OrthoOrbital C 25   p \
	OrthoOrbital C 25   px \
	OrthoOrbital C 25   py \
	OrthoOrbital C 25   pz \
	OrthoOrbital C 26   s \
	OrthoOrbital C 26   p \
	OrthoOrbital C 26   px \
	OrthoOrbital C 26   py \
	OrthoOrbital C 26   pz \
	OrthoOrbital C 27   s \
	OrthoOrbital C 27   p \
	OrthoOrbital C 27   px \
	OrthoOrbital C 27   py \
	OrthoOrbital C 27   pz \
	OrthoOrbital C 28   s \
	OrthoOrbital C 28   p \
	OrthoOrbital C 28   px \
	OrthoOrbital C 28   py \
	OrthoOrbital C 28   pz \
	OrthoOrbital C 29   s \
	OrthoOrbital C 29   p \
	OrthoOrbital C 29   px \
	OrthoOrbital C 29   py \
	OrthoOrbital C 29   pz \
	OrthoOrbital C 30   s \
	OrthoOrbital C 30   p \
	OrthoOrbital C 30   px \
	OrthoOrbital C 30   py \
	OrthoOrbital C 30   pz \
	OrthoOrbital C 31   s \
	OrthoOrbital C 31   p \
	OrthoOrbital C 31   px \
	OrthoOrbital C 31   py \
	OrthoOrbital C 31   pz \
	OrthoOrbital C 32   s \
	OrthoOrbital C 32   p \
	OrthoOrbital C 32   px \
	OrthoOrbital C 32   py \
	OrthoOrbital C 32   pz \
	OrthoOrbital C 33   s \
	OrthoOrbital C 33   p \
	OrthoOrbital C 33   px \
	OrthoOrbital C 33   py \
	OrthoOrbital C 33   pz \
	OrthoOrbital C 34   s \
	OrthoOrbital C 34   p \
	OrthoOrbital C 34   px \
	OrthoOrbital C 34   py \
	OrthoOrbital C 34   pz \
	OrthoOrbital C 35   s \
	OrthoOrbital C 35   p \
	OrthoOrbital C 35   px \
	OrthoOrbital C 35   py \
	OrthoOrbital C 35   pz \
	OrthoOrbital C 36   s \
	OrthoOrbital C 36   p \
	OrthoOrbital C 36   px \
	OrthoOrbital C 36   py \
	OrthoOrbital C 36   pz \
	OrthoOrbital C 37   s \
	OrthoOrbital C 37   p \
	OrthoOrbital C 37   px \
	OrthoOrbital C 37   py \
	OrthoOrbital C 37   pz \
	OrthoOrbital C 38   s \
	OrthoOrbital C 38   p \
	OrthoOrbital C 38   px \
	OrthoOrbital C 38   py \
	OrthoOrbital C 38   pz \
	OrthoOrbital C 39   s \
	OrthoOrbital C 39   p \
	OrthoOrbital C 39   px \
	OrthoOrbital C 39   py \
	OrthoOrbital C 39   pz \
	OrthoOrbital C 40   s \
	OrthoOrbital C 40   p \
	OrthoOrbital C 40   px \
	OrthoOrbital C 40   py \
	OrthoOrbital C 40   pz \
	OrthoOrbital C 41   s \
	OrthoOrbital C 41   p \
	OrthoOrbital C 41   px \
	OrthoOrbital C 41   py \
	OrthoOrbital C 41   pz \
	OrthoOrbital C 42   s \
	OrthoOrbital C 42   p \
	OrthoOrbital C 42   px \
	OrthoOrbital C 42   py \
	OrthoOrbital C 42   pz \
	OrthoOrbital C 43   s \
	OrthoOrbital C 43   p \
	OrthoOrbital C 43   px \
	OrthoOrbital C 43   py \
	OrthoOrbital C 43   pz \
	OrthoOrbital C 44   s \
	OrthoOrbital C 44   p \
	OrthoOrbital C 44   px \
	OrthoOrbital C 44   py \
	OrthoOrbital C 44   pz \
	OrthoOrbital C 45   s \
	OrthoOrbital C 45   p \
	OrthoOrbital C 45   px \
	OrthoOrbital C 45   py \
	OrthoOrbital C 45   pz \
	OrthoOrbital N 1   s \
	OrthoOrbital N 1   p \
	OrthoOrbital N 1   px \
	OrthoOrbital N 1   py \
	OrthoOrbital N 1   pz \
	OrthoOrbital N 2   s \
	OrthoOrbital N 2   p \
	OrthoOrbital N 2   px \
	OrthoOrbital N 2   py \
	OrthoOrbital N 2   pz \
	OrthoOrbital N 3   s \
	OrthoOrbital N 3   p \
	OrthoOrbital N 3   px \
	OrthoOrbital N 3   py \
	OrthoOrbital N 3   pz \
	OrthoOrbital N 4   s \
	OrthoOrbital N 4   p \
	OrthoOrbital N 4   px \
	OrthoOrbital N 4   py \
	OrthoOrbital N 4   pz \
	OrthoOrbital Ti 1   s \
	OrthoOrbital Ti 1   p \
	OrthoOrbital Ti 1   px \
	OrthoOrbital Ti 1   py \
	OrthoOrbital Ti 1   pz \
	OrthoOrbital Ti 1   d \
	OrthoOrbital Ti 1   dxy \
	OrthoOrbital Ti 1   dyz \
	OrthoOrbital Ti 1   dz2 \
	OrthoOrbital Ti 1   dxz \
	OrthoOrbital Ti 1   dx2-y2 \
	OrthoOrbital O 1   s \
	OrthoOrbital O 1   p \
	OrthoOrbital O 1   px \
	OrthoOrbital O 1   py \
	OrthoOrbital O 1   pz \
	OrthoOrbital O 2   s \
	OrthoOrbital O 2   p \
	OrthoOrbital O 2   px \
	OrthoOrbital O 2   py \
	OrthoOrbital O 2   pz \
	OrthoOrbital H 1   s \
	OrthoOrbital H 2   s
dump End ElecDensity KEdensity BandEigs EigStats RhoAtom DOS Kpoints
dump Ionic State IonicPositions Lattice EigStats Ecomponents
dump 
dump 
dump 
dump 
dump 
dump 
dump 
dump 
dump-name jdft.$VAR
elec-cutoff 20
elec-eigen-algo Davidson
elec-ex-corr gga-PBE
elec-initial-magnetization 0.000000 no
elec-n-bands 136
elec-smearing Fermi 0.001
electronic-minimize  \
	dirUpdateScheme      FletcherReeves \
	linminMethod         DirUpdateRecommended \
	nIterations          100 \
	history              15 \
	knormThreshold       0 \
	energyDiffThreshold  1e-07 \
	nEnergyDiff          2 \
	alphaTstart          1 \
	alphaTmin            1e-10 \
	updateTestStepSize   yes \
	alphaTreduceFactor   0.1 \
	alphaTincreaseFactor 3 \
	nAlphaAdjustMax      3 \
	wolfeEnergy          0.0001 \
	wolfeGradient        0.9 \
	fdTest               no
exchange-regularization WignerSeitzTruncated
fluid LinearPCM 298.000000 1.013250
fluid-anion F- 0.5 MeanFieldLJ \
	epsBulk 1 \
	pMol 0 \
	epsInf 1 \
	Pvap 0 \
	sigmaBulk 0 \
	Rvdw 2.24877 \
	Res 0 \
	tauNuc 343133
fluid-cation Na+ 0.5 MeanFieldLJ \
	epsBulk 1 \
	pMol 0 \
	epsInf 1 \
	Pvap 0 \
	sigmaBulk 0 \
	Rvdw 2.19208 \
	Res 0 \
	tauNuc 343133
fluid-ex-corr lda-TF lda-PZ
fluid-gummel-loop 10 1.000000e-05
fluid-minimize  \
	dirUpdateScheme      PolakRibiere \
	linminMethod         DirUpdateRecommended \
	nIterations          400 \
	history              15 \
	knormThreshold       1e-11 \
	energyDiffThreshold  0 \
	nEnergyDiff          2 \
	alphaTstart          1 \
	alphaTmin            1e-10 \
	updateTestStepSize   yes \
	alphaTreduceFactor   0.1 \
	alphaTincreaseFactor 3 \
	nAlphaAdjustMax      6 \
	wolfeEnergy          0.0001 \
	wolfeGradient        0.9 \
	fdTest               no
fluid-solvent H2O 55.338 ScalarEOS \
	epsBulk 78.4 \
	pMol 0.92466 \
	epsInf 1.77 \
	Pvap 1.06736e-10 \
	sigmaBulk 4.62e-05 \
	Rvdw 2.61727 \
	Res 1.42 \
	tauNuc 343133 \
	poleEl 15 7 1
forces-output-coords Positions
initial-state jdft.$VAR
ion C  -0.001126416327486   0.188860796950784  43.296544449569161 1
ion C  21.043309079600089   4.140017606841500  43.265953426470944 1
ion C  18.697126889893315   8.142580982949518  43.124958766682838 1
ion C  -7.048231681182537  12.144479369861676  43.128814310783227 1
ion C  -9.371241557937529  16.162529022751837  43.229303212737527 1
ion C   4.681624611192064   0.293947491386693   0.080391687796210 1
ion C   2.293306728132396   4.316326273827420   0.225820644207489 1
ion C  -0.124110061981687   8.124991747497340   0.164782423799646 1
ion C  -2.434975118390474  12.132132526486320  43.241950812645314 1
ion C  -4.726780301415021  16.164645620987176  43.243063016444054 1
ion C   9.373163823706598   0.177248537017147  43.270550062520215 1
ion C   7.082121784510518   4.283878426874088   0.173136361621019 1
ion C  -0.030039306686936  16.053376725056118   0.087968356689495 1
ion C   2.340541540782061  20.021511682501856  43.279243154888455 1
ion C  11.751869240953710   4.124906077195743  43.235143711421848 1
ion C   9.463415541302767   8.116770088504950   0.116722930653677 1
ion C   4.668625461708938  15.921875629169385   0.189568990801230 1
ion C   6.993201565670759  20.030329404330121  43.281055887047266 1
ion C  16.397210362891897   4.110041716259762  43.175159327706332 1
ion C  14.087684828848445   8.136325408361996  43.134039595794270 1
ion C  11.774686233021816  12.142771135846312  43.219620449019260 1
ion C   9.375773665166635  16.081657998998132   0.032600918054526 1
ion C  -0.013762965134927   2.878589596047548   0.083536008381031 1
ion C  -2.421743294728991   6.796319350443015  43.234360564768252 1
ion C  -4.743864203684781  10.794910336923978  43.130026172156434 1
ion C  -7.048806546288720  14.822777049954320  43.195371089329939 1
ion C  -9.375339382988502  18.851614400676471  43.291993762969433 1
ion C   4.680560936663863   3.011680689894535   0.189143413546081 1
ion C  -0.133866339814948  10.812966452981511   0.189262153132739 1
ion C  -2.405383600793892  14.804072350070298  43.277554143131816 1
ion C  -4.724305221018481  18.851339611168964  43.287835957323097 1
ion C   9.385957305847251   2.860977437694197   0.025081857160208 1
ion C   2.274830997862805  14.613169348694017   0.251632236339781 1
ion C  -0.017922926223379  18.741431008801971  43.284837453498689 1
ion C  14.077048489698797   2.768032072350191  43.214574046562355 1
ion C  11.777856799716053   6.800510027672340  43.229204394331752 1
ion C   9.462773076465915  10.824188878090363   0.086994188372452 1
ion C   7.073453008300813  14.648715438183807   0.145740535794751 1
ion C   4.667548048150932  18.640735511619376   0.073806241758801 1
ion C  18.724405248611774   2.776431473250836  43.226931690020919 1
ion C  16.394503283202091   6.787902548246022  43.114101895072722 1
ion C  14.086479807403357  10.809179976983048  43.139428832133888 1
ion C  11.745173885871315  14.819236384662803  43.236294380800764 1
ion C   9.360820800951032  18.767544208530666  43.282242157036933 1
ion C   3.294877995100730   7.676645722573999   5.182122483813955 1
ion N   2.140436990198888  12.015509929031722   0.474583340403728 1
ion N   7.188029123628761  12.057084598418420   0.236047891160470 1
ion N   2.171384438097857   6.929473298990489   0.418301980262336 1
ion N   7.194367617180639   6.869237110471643   0.339773348798938 1
ion Ti   4.811893093150646   9.460832300452884   1.889556336922649 1
ion O   2.294128758085106   6.692616877708781   6.844555074082965 1
ion O   7.238046121314804   3.070444164436045   5.722033325208436 1
ion H   8.441484081027596   3.477738440110713   7.073552777840959 1
ion H   6.069913660685240   1.870420135209651   6.516784770530340 1
ion-species /projects/musgravc/apps/jdftx-1.6.0/build/pseudopotentials/GBRV_v1.5/$ID_pbe_v1.uspp
ion-species /projects/musgravc/apps/jdftx-1.6.0/build/pseudopotentials/GBRV_v1.5/$ID_pbe_v1.2.uspp
ion-species /projects/musgravc/apps/jdftx-1.6.0/build/pseudopotentials/GBRV_v1.5/$ID_pbe_v1.4.uspp
ion-species /projects/musgravc/apps/jdftx-1.6.0/build/pseudopotentials/GBRV_v1.5/$ID_pbe_v1.5.uspp
ion-width Ecut
ionic-minimize  \
	dirUpdateScheme      L-BFGS \
	linminMethod         DirUpdateRecommended \
	nIterations          100 \
	history              15 \
	knormThreshold       0.0001 \
	energyDiffThreshold  1e-06 \
	nEnergyDiff          2 \
	alphaTstart          1 \
	alphaTmin            1e-10 \
	updateTestStepSize   yes \
	alphaTreduceFactor   0.1 \
	alphaTincreaseFactor 3 \
	nAlphaAdjustMax      3 \
	wolfeEnergy          0.0001 \
	wolfeGradient        0.9 \
	fdTest               no
kpoint   0.000000000000   0.000000000000   0.000000000000  1.00000000000000
kpoint-folding 3 3 1 
latt-move-scale 0 0 0
latt-scale 1 1 1 
lattice  \
	  23.436261999999999  -11.733459000000000    0.000000000000000  \
	   0.017994000000000   19.941849000000001    0.000000000000000  \
	   0.000000000000000    0.000000000000000   43.256312999999999 
lattice-minimize  \
	dirUpdateScheme      L-BFGS \
	linminMethod         DirUpdateRecommended \
	nIterations          0 \
	history              15 \
	knormThreshold       0 \
	energyDiffThreshold  1e-06 \
	nEnergyDiff          2 \
	alphaTstart          1 \
	alphaTmin            1e-10 \
	updateTestStepSize   yes \
	alphaTreduceFactor   0.1 \
	alphaTincreaseFactor 3 \
	nAlphaAdjustMax      3 \
	wolfeEnergy          0.0001 \
	wolfeGradient        0.9 \
	fdTest               no
lcao-params 30 1e-06 0.001
pcm-variant CANDLE
spintype z-spin
subspace-rotation-factor 1 yes
symmetries none
symmetry-threshold 0.0001
target-mu -0.1602 no

van-der-waals D3


Applied RMS atom displacement 0 bohrs to make symmetries exact.

---------- Initializing the Grid ----------
R = 
[      23.4363     -11.7335            0  ]
[     0.017994      19.9418            0  ]
[            0            0      43.2563  ]
unit cell volume = 20225.5
G =
[   0.267976   0.157673         -0  ]
[ -0.000241801   0.314933          0  ]
[          0         -0   0.145255  ]
Minimum fftbox size, Smin = [  96  96  176  ]
Chosen fftbox size, S = [  96  96  180  ]

---------- Exchange Correlation functional ----------
Initalized PBE GGA exchange.
Initalized PBE GGA correlation.

---------- Setting up pseudopotentials ----------
Width of ionic core gaussian charges (only for fluid interactions / plotting) set to 0.397384

Reading pseudopotential file '/projects/musgravc/apps/jdftx-1.6.0/build/pseudopotentials/GBRV_v1.5/c_pbe_v1.2.uspp':
  Title: C.  Created by USPP 7.3.6 on 3-2-2014
  Reference state energy: -5.406344.  4 valence electrons in orbitals:
    |200>  occupation: 2  eigenvalue: -0.504890
    |210>  occupation: 2  eigenvalue: -0.194356
  lMax: 1  lLocal: 2  QijEcut: 5
  4 projectors sampled on a log grid with 503 points:
    l: 0  eig: -0.504890  rCut: 1.3
    l: 0  eig: 0.000000  rCut: 1.3
    l: 1  eig: -0.194357  rCut: 1.3
    l: 1  eig: 0.000000  rCut: 1.3
  Partial core density with radius 1.1
  Transforming core density to a uniform radial grid of dG=0.02 with 1464 points.
  Transforming local potential to a uniform radial grid of dG=0.02 with 1464 points.
  Transforming nonlocal projectors to a uniform radial grid of dG=0.02 with 432 points.
  Transforming density augmentations to a uniform radial grid of dG=0.02 with 1464 points.
  Transforming atomic orbitals to a uniform radial grid of dG=0.02 with 432 points.
  Core radius for overlap checks: 1.30 bohrs.

Reading pseudopotential file '/projects/musgravc/apps/jdftx-1.6.0/build/pseudopotentials/GBRV_v1.5/n_pbe_v1.2.uspp':
  Title: N.  Created by USPP 7.3.6 on 3-2-2014
  Reference state energy: -9.763716.  5 valence electrons in orbitals:
    |200>  occupation: 2  eigenvalue: -0.681964
    |210>  occupation: 3  eigenvalue: -0.260726
  lMax: 1  lLocal: 2  QijEcut: 6
  4 projectors sampled on a log grid with 491 points:
    l: 0  eig: -0.681964  rCut: 1.15
    l: 0  eig: 0.000000  rCut: 1.15
    l: 1  eig: -0.260729  rCut: 1.2
    l: 1  eig: 0.500000  rCut: 1.2
  Partial core density with radius 0.8
  Transforming core density to a uniform radial grid of dG=0.02 with 1464 points.
  Transforming local potential to a uniform radial grid of dG=0.02 with 1464 points.
  Transforming nonlocal projectors to a uniform radial grid of dG=0.02 with 432 points.
  Transforming density augmentations to a uniform radial grid of dG=0.02 with 1464 points.
  Transforming atomic orbitals to a uniform radial grid of dG=0.02 with 432 points.
  Core radius for overlap checks: 1.20 bohrs.

Reading pseudopotential file '/projects/musgravc/apps/jdftx-1.6.0/build/pseudopotentials/GBRV_v1.5/ti_pbe_v1.4.uspp':
  Title: Ti.  Created by USPP 7.3.6 on 31-3-15
  Reference state energy: -59.020943.  12 valence electrons in orbitals:
    |300>  occupation: 2  eigenvalue: -2.777623
    |310>  occupation: 6  eigenvalue: -1.894596
    |400>  occupation: 2  eigenvalue: -0.438610
    |320>  occupation: 1  eigenvalue: -0.583119
  lMax: 2  lLocal: 3  QijEcut: 6
  6 projectors sampled on a log grid with 597 points:
    l: 0  eig: -2.777624  rCut: 1.8
    l: 0  eig: -0.438611  rCut: 1.8
    l: 1  eig: -1.894596  rCut: 1.8
    l: 1  eig: 0.500000  rCut: 1.8
    l: 2  eig: -0.583118  rCut: 1.8
    l: 2  eig: 0.150000  rCut: 1.8
  Partial core density with radius 0.8
  Transforming core density to a uniform radial grid of dG=0.02 with 1464 points.
  Transforming local potential to a uniform radial grid of dG=0.02 with 1464 points.
  Transforming nonlocal projectors to a uniform radial grid of dG=0.02 with 432 points.
  Transforming density augmentations to a uniform radial grid of dG=0.02 with 1464 points.
  Transforming atomic orbitals to a uniform radial grid of dG=0.02 with 432 points.
  Core radius for overlap checks: 1.80 bohrs.

Reading pseudopotential file '/projects/musgravc/apps/jdftx-1.6.0/build/pseudopotentials/GBRV_v1.5/o_pbe_v1.2.uspp':
  Title: O.  Created by USPP 7.3.6 on 3-2-2014
  Reference state energy: -15.894388.  6 valence electrons in orbitals:
    |200>  occupation: 2  eigenvalue: -0.878823
    |210>  occupation: 4  eigenvalue: -0.332131
  lMax: 2  lLocal: 2  QijEcut: 6
  5 projectors sampled on a log grid with 511 points:
    l: 0  eig: -0.878823  rCut: 1.25
    l: 0  eig: 0.000000  rCut: 1.25
    l: 1  eig: -0.332132  rCut: 1.25
    l: 1  eig: 0.000000  rCut: 1.25
    l: 2  eig: 1.000000  rCut: 1.25
  Partial core density with radius 0.7
  Transforming core density to a uniform radial grid of dG=0.02 with 1464 points.
  Transforming local potential to a uniform radial grid of dG=0.02 with 1464 points.
  Transforming nonlocal projectors to a uniform radial grid of dG=0.02 with 432 points.
  Transforming density augmentations to a uniform radial grid of dG=0.02 with 1464 points.
  Transforming atomic orbitals to a uniform radial grid of dG=0.02 with 432 points.
  Core radius for overlap checks: 1.25 bohrs.

Reading pseudopotential file '/projects/musgravc/apps/jdftx-1.6.0/build/pseudopotentials/GBRV_v1.5/h_pbe_v1.4.uspp':
  Title: H.  Created by USPP 7.3.6 on 2-4-15
  Reference state energy: -0.458849.  1 valence electrons in orbitals:
    |100>  occupation: 1  eigenvalue: -0.238595
  lMax: 0  lLocal: 1  QijEcut: 6
  2 projectors sampled on a log grid with 395 points:
    l: 0  eig: -0.238595  rCut: 1.2
    l: 0  eig: 1.000000  rCut: 1.2
  Transforming local potential to a uniform radial grid of dG=0.02 with 1464 points.
  Transforming nonlocal projectors to a uniform radial grid of dG=0.02 with 432 points.
  Transforming density augmentations to a uniform radial grid of dG=0.02 with 1464 points.
  Transforming atomic orbitals to a uniform radial grid of dG=0.02 with 432 points.
  Core radius for overlap checks: 1.20 bohrs.

Initialized 5 species with 54 total atoms.

Folded 1 k-points by 3x3x1 to 9 k-points.

---------- Setting up k-points, bands, fillings ----------
No reducable k-points. 
Computing the number of bands and number of electrons
Reading initial fillings from file jdft.fillings.
nElectrons: 225.107714   nBands: 136   nStates: 18

----- Setting up reduced wavefunction bases (one per k-point) -----
average nbasis = 86412.556 , ideal nbasis = 86404.907

----- Initializing Supercell corresponding to k-point mesh -----
Lattice vector linear combinations in supercell:
[   3   0   0  ]
[   0   3   0  ]
[   0   0   1  ]
Supercell lattice vectors:
[  70.3088  -35.2004  0  ]
[  0.053982  59.8255  0  ]
[  0  0  43.2563  ]

Initializing DFT-D3 calculator:
	Parameters set for gga-PBE functional
	s6:  1.000  s_r6:  1.217
	s8:  0.722  s_r8:  1.000
	Per-atom parameters loaded for:
	 C:  sqrtQ[a0]:  3.105  Rcov[a0]:  1.417  CN: [ 0.00 0.99 2.00 3.00 3.98 ]
	 N:  sqrtQ[a0]:  2.712  Rcov[a0]:  1.342  CN: [ 0.00 0.99 2.01 2.99 ]
	Ti:  sqrtQ[a0]:  6.288  Rcov[a0]:  2.305  CN: [ 0.00 1.83 3.87 ]
	 O:  sqrtQ[a0]:  2.594  Rcov[a0]:  1.191  CN: [ 0.00 0.99 1.99 ]
	 H:  sqrtQ[a0]:  2.007  Rcov[a0]:  0.605  CN: [ 0.91 0.00 ]

Initializing DFT-D2 calculator for fluid / solvation:
	 C:  C6:   30.35 Eh-a0^6  R0: 2.744 a0
	 N:  C6:   21.33 Eh-a0^6  R0: 2.640 a0
	Ti:  C6:  187.33 Eh-a0^6  R0: 2.952 a0
	 O:  C6:   12.14 Eh-a0^6  R0: 2.536 a0
	 H:  C6:    2.43 Eh-a0^6  R0: 1.892 a0

---------- Setting up ewald sum ----------
Optimum gaussian width for ewald sums = 5.590847 bohr.
Real space sum over 567 unit cells with max indices [  4  4  3  ]
Reciprocal space sum over 7803 terms with max indices [  8  8  13  ]

Computing DFT-D3 correction:
# coordination-number C 3.300 3.321 3.333 3.330 3.312 3.290 3.317 3.517 3.329 3.313 3.303 3.333 3.301 3.299 3.323 3.644 3.262 3.300 3.317 3.331 3.326 3.303 3.300 3.326 3.334 3.318 3.299 3.267 3.516 3.323 3.301 3.306 3.314 3.300 3.312 3.326 3.633 3.326 3.287 3.311 3.330 3.332 3.322 3.300 2.005
# coordination-number N 3.168 3.175 3.182 3.180
# coordination-number Ti 6.375
# coordination-number O 1.022 1.992
# coordination-number H 0.993 0.993
# diagonal-C6 C 24.29 24.07 23.95 23.97 24.17 24.37 24.11 21.39 23.99 24.16 24.26 23.95 24.27 24.29 24.05 19.80 24.61 24.29 24.11 23.96 24.02 24.26 24.28 24.01 23.94 24.10 24.29 24.57 21.40 24.05 24.27 24.23 24.14 24.29 24.17 24.02 19.90 24.02 24.40 24.17 23.98 23.96 24.06 24.28 29.48
# diagonal-C6 N 15.60 15.60 15.60 15.60
# diagonal-C6 Ti 321.59
# diagonal-C6 O 12.79 10.41
# diagonal-C6 H 3.09 3.09
EvdW_6 =   -0.043040
EvdW_8 =   -0.033294

---------- Allocating electronic variables ----------
Initializing wave functions:  reading from 'jdft.wfns'
----- createFluidSolver() ----- (Fluid-side solver setup)
   Initializing fluid molecule 'H2O'
     Initializing site 'O'
       Electron density: proportional to exp(-r/0.36935)*erfc((r-0.51523)/0.36823) with norm 6.826
       Charge density: gaussian nuclear width 0.478731 with net site charge 0.826
       Polarizability: cuspless exponential with width 0.32 and norm 3.73
       Hard sphere radius: 2.57003 bohrs
       Positions in reference frame:
         [ +0.000000 +0.000000 +0.000000 ]
     Initializing site 'H'
       Electron density: proportional to exp(-r/0.34641)*erfc((r-0)/0.390882) with norm 0.587
       Charge density: gaussian nuclear width 0.377945 with net site charge -0.413
       Polarizability: cuspless exponential with width 0.39 and norm 3.3
       Positions in reference frame:
         [ +0.000000 -1.441945 +1.122523 ]
         [ +0.000000 +1.441945 +1.122523 ]
     Net charge: 0   dipole magnitude: 0.927204
     Initializing spherical shell mfKernel with radius 2.61727 Bohr
     deltaS corrections:
       site 'O': -7.54299
       site 'H': -6.83917
   Initializing fluid molecule 'Na+'
     Initializing site 'Na'
       Electron density: proportional to exp(-r/0.19682)*erfc((r-0.71491)/0.41314) with norm 8.1383
       Charge density: gaussian nuclear width 0.365347 with net site charge -1
       Hard sphere radius: 1.86327 bohrs
       Positions in reference frame:
         [ +0.000000 +0.000000 +0.000000 ]
     Net charge: -1   dipole magnitude: 0
     Initializing gaussian mfKernel with width: 1.55004 Bohr
     deltaS corrections:
       site 'Na': -22.3555
   Initializing fluid molecule 'F-'
     Initializing site 'F'
       Electron density: proportional to exp(-r/0.38886)*erfc((r-0)/0.438782) with norm 8
       Charge density: gaussian nuclear width 0.374796 with net site charge 1
       Hard sphere radius: 2.39995 bohrs
       Positions in reference frame:
         [ +0.000000 +0.000000 +0.000000 ]
     Net charge: 1   dipole magnitude: 0
     Initializing gaussian mfKernel with width: 1.59012 Bohr
     deltaS corrections:
       site 'F': -9.04335

Correction to mu due to finite nuclear width = -0.0110869
   Cavity determined by nc: 0.00142 and sigma: 0.707107
   Nonlocal vdW cavity from gaussian model electron density with norm = 8 and sigma = 0.993594 bohr
   Charge asymmetry in cavity with sensitivity pCavity = 36.5 e-bohr/Eh
   Electrostatic cavity expanded by eta = 1.46 bohrs
   Weighted density cavitation model constrained by Nbulk: 0.0049383 bohr^-3, Pvap: 3.14029 kPa, Rvdw: 2.61727 bohr and sigmaBulk: 4.62e-05 Eh/bohr^2 at T: 298 K.
   Weighted density dispersion model using vdW pair potentials with single solvent site with sqrtC6eff: 0.77 SI.
Reading fluid state from 'jdft.fluidState'


---- Citations for features of the code used in this run ----

   Software package:
      R. Sundararaman, K. Letchworth-Weaver, K.A. Schwarz, D. Gunceler, Y. Ozhabes and T.A. Arias, 'JDFTx: software for joint density-functional theory', SoftwareX 6, 278 (2017)

   gga-PBE exchange-correlation functional:
      J.P. Perdew, K. Burke and M. Ernzerhof, Phys. Rev. Lett. 77, 3865 (1996)

   Pseudopotentials:
      KF Garrity, JW Bennett, KM Rabe and D Vanderbilt, Comput. Mater. Sci. 81, 446 (2014)

   DFT-D3 dispersion correction:
      S. Grimme, J. Antony, S. Ehrlich and H. Krieg, J. Chem. Phys. 132, 154104 (2010)

   DFT-D2 dispersion correction:
      S. Grimme, J. Comput. Chem. 27, 1787 (2006)

   Charge-asymmetric nonlocally-determined local-electric (CANDLE) solvation model:
      R. Sundararaman and W.A. Goddard III, J. Chem. Phys. 142, 064107 (2015)

   Total energy minimization with Auxiliary Hamiltonian:
      C. Freysoldt, S. Boeck, and J. Neugebauer, Phys. Rev. B 79, 241103(R) (2009)

   Grand-canonical (fixed-potential) DFT:
      R. Sundararaman, W. A. Goddard III and T. A. Arias, J. Chem. Phys. 146, 114104 (2017)

   Linear-tetrahedron sampling for density of states:
      G. Lehmann and M. Taut, Phys. status solidi (b) 54, 469 (1972)

This list may not be complete. Please suggest additional citations or
report any other bugs at https://github.com/shankar1729/jdftx/issues

Initialization completed successfully at t[s]:     22.01


Computing DFT-D3 correction:
# coordination-number C 3.300 3.321 3.333 3.330 3.312 3.290 3.317 3.517 3.329 3.313 3.303 3.333 3.301 3.299 3.323 3.644 3.262 3.300 3.317 3.331 3.326 3.303 3.300 3.326 3.334 3.318 3.299 3.267 3.516 3.323 3.301 3.306 3.314 3.300 3.312 3.326 3.633 3.326 3.287 3.311 3.330 3.332 3.322 3.300 2.005
# coordination-number N 3.168 3.175 3.182 3.180
# coordination-number Ti 6.375
# coordination-number O 1.022 1.992
# coordination-number H 0.993 0.993
# diagonal-C6 C 24.29 24.07 23.95 23.97 24.17 24.37 24.11 21.39 23.99 24.16 24.26 23.95 24.27 24.29 24.05 19.80 24.61 24.29 24.11 23.96 24.02 24.26 24.28 24.01 23.94 24.10 24.29 24.57 21.40 24.05 24.27 24.23 24.14 24.29 24.17 24.02 19.90 24.02 24.40 24.17 23.98 23.96 24.06 24.28 29.48
# diagonal-C6 N 15.60 15.60 15.60 15.60
# diagonal-C6 Ti 321.59
# diagonal-C6 O 12.79 10.41
# diagonal-C6 H 3.09 3.09
EvdW_6 =   -0.043040
EvdW_8 =   -0.033294
Shifting auxilliary hamiltonian by -0.000000 to set nElectrons=225.107714

-------- Electronic minimization -----------
	Linear fluid (dielectric constant: 78.4, screening length: 8.12261 Bohr) occupying 0.717141 of unit cell:	Completed after 0 iterations at t[s]:     51.03
	FillingsUpdate:  mu: -0.160200000  nElectrons: 225.107714  magneticMoment: [ Abs: 1.25214  Tot: -1.06008 ]
ElecMinimize: Iter:   0  G: -352.471735660724846  |grad|_K:  5.443e-09  alpha:  1.000e+00
	Linear fluid (dielectric constant: 78.4, screening length: 8.12261 Bohr) occupying 0.717142 of unit cell:	Completed after 0 iterations at t[s]:    151.65
	Linear fluid (dielectric constant: 78.4, screening length: 8.12261 Bohr) occupying 0.717142 of unit cell:	Completed after 0 iterations at t[s]:    187.90
	FillingsUpdate:  mu: -0.160200000  nElectrons: 225.107711  magneticMoment: [ Abs: 1.25213  Tot: -1.06010 ]
	SubspaceRotationAdjust: set factor to 1.46
ElecMinimize: Iter:   1  G: -352.471735666555617  |grad|_K:  3.498e-09  alpha:  9.294e-01  linmin: -1.222e-05  t[s]:    237.65
	Linear fluid (dielectric constant: 78.4, screening length: 8.12261 Bohr) occupying 0.717142 of unit cell:	Completed after 0 iterations at t[s]:    279.83
	Linear fluid (dielectric constant: 78.4, screening length: 8.12261 Bohr) occupying 0.717142 of unit cell:	Completed after 0 iterations at t[s]:    318.20
ElecMinimize: 	Step increased G by 4.989715e-09, reducing alpha to 1.023552e-01.
	Linear fluid (dielectric constant: 78.4, screening length: 8.12261 Bohr) occupying 0.717142 of unit cell:	Completed after 0 iterations at t[s]:    400.41
ElecMinimize: 	Step increased G by 5.365052e-09, reducing alpha to 1.023552e-02.
	Linear fluid (dielectric constant: 78.4, screening length: 8.12261 Bohr) occupying 0.717142 of unit cell:	Completed after 0 iterations at t[s]:    483.24
ElecMinimize: 	Step increased G by 5.627726e-09, reducing alpha to 1.023552e-03.
ElecMinimize: 	Step failed to reduce G after 3 attempts. Quitting step.
ElecMinimize: 	Undoing step.
	Linear fluid (dielectric constant: 78.4, screening length: 8.12261 Bohr) occupying 0.717142 of unit cell:	Completed after 0 iterations at t[s]:    565.95
ElecMinimize: 	Step failed: resetting search direction.
	FillingsUpdate:  mu: -0.160200000  nElectrons: 225.107711  magneticMoment: [ Abs: 1.25213  Tot: -1.06010 ]
	SubspaceRotationAdjust: set factor to 1.62
ElecMinimize: Iter:   2  G: -352.471735660925560  |grad|_K:  3.667e-09  alpha:  1.024e-03
	Linear fluid (dielectric constant: 78.4, screening length: 8.12261 Bohr) occupying 0.717142 of unit cell:	Completed after 0 iterations at t[s]:    658.11
	Linear fluid (dielectric constant: 78.4, screening length: 8.12261 Bohr) occupying 0.717142 of unit cell:	Completed after 0 iterations at t[s]:    694.15
	FillingsUpdate:  mu: -0.160200000  nElectrons: 225.107595  magneticMoment: [ Abs: 1.25211  Tot: -1.06006 ]
	SubspaceRotationAdjust: set factor to 2.51
ElecMinimize: Iter:   3  G: -352.471735662672415  |grad|_K:  2.138e-09  alpha:  6.184e-01  linmin: -1.509e-05  t[s]:    743.56
	Linear fluid (dielectric constant: 78.4, screening length: 8.12261 Bohr) occupying 0.717142 of unit cell:	Completed after 0 iterations at t[s]:    786.28
	Linear fluid (dielectric constant: 78.4, screening length: 8.12261 Bohr) occupying 0.717142 of unit cell:	Completed after 0 iterations at t[s]:    821.86
	FillingsUpdate:  mu: -0.160200000  nElectrons: 225.107474  magneticMoment: [ Abs: 1.25206  Tot: -1.05999 ]
	SubspaceRotationAdjust: set factor to 2.68
ElecMinimize: Iter:   4  G: -352.471735663384834  |grad|_K:  1.977e-09  alpha:  8.262e-01  linmin:  5.388e-04  t[s]:    871.11
ElecMinimize: Converged (|Delta G|<1.000000e-07 for 2 iters).
Setting wave functions to eigenvectors of Hamiltonian
Converging empty states (this may take a while): |deigs|: 1.640e-09

Computing DFT-D3 correction:
# coordination-number C 3.300 3.321 3.333 3.330 3.312 3.290 3.317 3.517 3.329 3.313 3.303 3.333 3.301 3.299 3.323 3.644 3.262 3.300 3.317 3.331 3.326 3.303 3.300 3.326 3.334 3.318 3.299 3.267 3.516 3.323 3.301 3.306 3.314 3.300 3.312 3.326 3.633 3.326 3.287 3.311 3.330 3.332 3.322 3.300 2.005
# coordination-number N 3.168 3.175 3.182 3.180
# coordination-number Ti 6.375
# coordination-number O 1.022 1.992
# coordination-number H 0.993 0.993
# diagonal-C6 C 24.29 24.07 23.95 23.97 24.17 24.37 24.11 21.39 23.99 24.16 24.26 23.95 24.27 24.29 24.05 19.80 24.61 24.29 24.11 23.96 24.02 24.26 24.28 24.01 23.94 24.10 24.29 24.57 21.40 24.05 24.27 24.23 24.14 24.29 24.17 24.02 19.90 24.02 24.40 24.17 23.98 23.96 24.06 24.28 29.48
# diagonal-C6 N 15.60 15.60 15.60 15.60
# diagonal-C6 Ti 321.59
# diagonal-C6 O 12.79 10.41
# diagonal-C6 H 3.09 3.09
EvdW_6 =   -0.043040
EvdW_8 =   -0.033294

# Ionic positions in cartesian coordinates:
ion C  -0.001126416327486   0.188860796950784  43.296544449569161 1
ion C  21.043309079600089   4.140017606841500  43.265953426470944 1
ion C  18.697126889893315   8.142580982949518  43.124958766682838 1
ion C  -7.048231681182537  12.144479369861676  43.128814310783227 1
ion C  -9.371241557937529  16.162529022751837  43.229303212737527 1
ion C   4.681624611192064   0.293947491386693   0.080391687796210 1
ion C   2.293306728132396   4.316326273827420   0.225820644207489 1
ion C  -0.124110061981687   8.124991747497340   0.164782423799646 1
ion C  -2.434975118390474  12.132132526486320  43.241950812645314 1
ion C  -4.726780301415021  16.164645620987176  43.243063016444054 1
ion C   9.373163823706598   0.177248537017147  43.270550062520215 1
ion C   7.082121784510518   4.283878426874088   0.173136361621019 1
ion C  -0.030039306686936  16.053376725056118   0.087968356689495 1
ion C   2.340541540782061  20.021511682501856  43.279243154888455 1
ion C  11.751869240953710   4.124906077195743  43.235143711421848 1
ion C   9.463415541302767   8.116770088504950   0.116722930653677 1
ion C   4.668625461708938  15.921875629169385   0.189568990801230 1
ion C   6.993201565670759  20.030329404330121  43.281055887047266 1
ion C  16.397210362891897   4.110041716259762  43.175159327706332 1
ion C  14.087684828848445   8.136325408361996  43.134039595794270 1
ion C  11.774686233021816  12.142771135846312  43.219620449019260 1
ion C   9.375773665166635  16.081657998998132   0.032600918054526 1
ion C  -0.013762965134927   2.878589596047548   0.083536008381031 1
ion C  -2.421743294728991   6.796319350443015  43.234360564768252 1
ion C  -4.743864203684781  10.794910336923978  43.130026172156434 1
ion C  -7.048806546288720  14.822777049954320  43.195371089329939 1
ion C  -9.375339382988502  18.851614400676471  43.291993762969433 1
ion C   4.680560936663863   3.011680689894535   0.189143413546081 1
ion C  -0.133866339814948  10.812966452981511   0.189262153132739 1
ion C  -2.405383600793892  14.804072350070298  43.277554143131816 1
ion C  -4.724305221018481  18.851339611168964  43.287835957323097 1
ion C   9.385957305847251   2.860977437694197   0.025081857160208 1
ion C   2.274830997862805  14.613169348694017   0.251632236339781 1
ion C  -0.017922926223379  18.741431008801971  43.284837453498689 1
ion C  14.077048489698797   2.768032072350191  43.214574046562355 1
ion C  11.777856799716053   6.800510027672340  43.229204394331752 1
ion C   9.462773076465915  10.824188878090363   0.086994188372452 1
ion C   7.073453008300813  14.648715438183807   0.145740535794751 1
ion C   4.667548048150932  18.640735511619376   0.073806241758801 1
ion C  18.724405248611774   2.776431473250836  43.226931690020919 1
ion C  16.394503283202091   6.787902548246022  43.114101895072722 1
ion C  14.086479807403357  10.809179976983048  43.139428832133888 1
ion C  11.745173885871315  14.819236384662803  43.236294380800764 1
ion C   9.360820800951032  18.767544208530666  43.282242157036933 1
ion C   3.294877995100730   7.676645722573999   5.182122483813955 1
ion N   2.140436990198888  12.015509929031722   0.474583340403728 1
ion N   7.188029123628761  12.057084598418420   0.236047891160470 1
ion N   2.171384438097857   6.929473298990489   0.418301980262336 1
ion N   7.194367617180639   6.869237110471643   0.339773348798938 1
ion Ti   4.811893093150646   9.460832300452884   1.889556336922649 1
ion O   2.294128758085106   6.692616877708781   6.844555074082965 1
ion O   7.238046121314804   3.070444164436045   5.722033325208436 1
ion H   8.441484081027596   3.477738440110713   7.073552777840959 1
ion H   6.069913660685240   1.870420135209651   6.516784770530340 1

# Forces in Cartesian coordinates:
force C   0.000002967882987   0.000113466264776   0.000086799167687 1
force C  -0.000053663430077  -0.000226903968136   0.000011476601102 1
force C  -0.000165621530984   0.000012794992924   0.000253277961344 1
force C  -0.000198419376763  -0.000267321484722  -0.000080113649701 1
force C  -0.000373595516494  -0.000133531750170  -0.000004747935567 1
force C  -0.000150056511517   0.000135288131111  -0.000036759695454 1
force C  -0.000068390842783  -0.000111854671696  -0.000062596156241 1
force C  -0.000300710844091  -0.000192513694353  -0.000127526700217 1
force C  -0.000344102440669  -0.000367358004241   0.000185851239039 1
force C  -0.000061870875751  -0.000173401116967  -0.000083816531667 1
force C   0.000127231145732   0.000064541952543   0.000024290094285 1
force C   0.000162853099995   0.000072615167400  -0.000377263331249 1
force C  -0.000288347531700  -0.000019844185785   0.000184534703735 1
force C   0.000252294700860   0.000066306154376   0.000208879899433 1
force C   0.000061785027030   0.000364374886580   0.000149009839669 1
force C   0.000089754133431   0.000068658527743  -0.000218361728902 1
force C  -0.000045228827104  -0.000091096001650  -0.000070506684248 1
force C   0.000123077226087  -0.000096087459594  -0.000034742815417 1
force C  -0.000000429951856   0.000223974646656   0.000069551772205 1
force C   0.000108176025061   0.000132044990015   0.000112647202940 1
force C  -0.000030664322967  -0.000113761967314   0.000019491493926 1
force C   0.000407268362077   0.000100512259424   0.000056606471860 1
force C   0.000013122872487   0.000057114484074  -0.000053970681794 1
force C   0.000066670514811   0.000011991849637   0.000070511334009 1
force C   0.000144828886288   0.000199357350184   0.000158396658122 1
force C   0.000084845998033   0.000457278594247  -0.000227278614911 1
force C   0.000212031708489   0.000189410718581   0.000100067571534 1
force C  -0.000144903145089   0.000154413964881  -0.000327955810508 1
force C   0.000292639417260  -0.000056204988586  -0.000008748052483 1
force C   0.000301346481116   0.000418908332140   0.000163801233352 1
force C   0.000191661834103   0.000247534768427   0.000073946085648 1
force C   0.000121277697951  -0.000384986819544  -0.000086660847398 1
force C   0.000207554822373   0.000154630668854   0.000021209896815 1
force C  -0.000005202464912  -0.000069796614686   0.000131927177252 1
force C  -0.000423076428854  -0.000219388904547   0.000174629683925 1
force C  -0.000119686254491  -0.000293523894713   0.000120051984848 1
force C  -0.000088446353638  -0.000013565800352  -0.000161723957120 1
force C  -0.000125838293541   0.000149828567187  -0.000121543091749 1
force C  -0.000118261240790  -0.000349697708074   0.000068468184083 1
force C   0.000211168798967  -0.000076907609797   0.000096733910533 1
force C   0.000098606113850   0.000351335044201   0.000202877635415 1
force C   0.000098248265519   0.000203632168793   0.000057356113102 1
force C  -0.000221695590788  -0.000150089073579   0.000050576804224 1
force C   0.000076208842551  -0.000133315855471   0.000066680143508 1
force C   0.001303031697019   0.000852261024644  -0.001391313783400 1
force N   0.000171303861632  -0.000379642920091  -0.000189365243670 1
force N   0.000045091185617   0.000038964648722  -0.000279157993918 1
force N   0.000156341340287  -0.000020812918781  -0.000068593152471 1
force N  -0.000354180429107  -0.000288677393835  -0.000406377230783 1
force Ti  -0.000195538375992   0.000437455945659   0.000033979437655 1
force O  -0.001407404433593  -0.000861551290929   0.000916079311472 1
force O   0.000205289652754   0.000494727788184  -0.000435908317252 1
force H   0.000175337655333  -0.000082972044906   0.000394757010349 1
force H  -0.000150712086363  -0.000465945128947   0.000533480312118 1

# Energy components:
   A_diel =        0.0152001942164404
   Eewald =     1658.7463252092943549
       EH =     1960.8889466169282514
     Eloc =    -4152.4523666936092923
      Enl =       52.5760931401286769
     EvdW =       -0.0763340408545283
      Exc =     -109.1705896083836222
 Exc_core =        3.3095748173340440
       KE =      197.6195292579004956
  MuShift =        0.0098953148558498
-------------------------------------
     Etot =     -388.5337257921891023
       TS =        0.0002271659467021
-------------------------------------
        F =     -388.5339529581357851
      muN =      -36.0622172947509227
-------------------------------------
        G =     -352.4717356633848340


Dumping 'jdft.fillings' ... done
Dumping 'jdft.wfns' ... done
Dumping 'jdft.fluidState' ... done
Dumping 'jdft.ionpos' ... done
Dumping 'jdft.lattice' ... done
Dumping 'jdft.eigenvals' ... done
Dumping 'jdft.eigStats' ... 
	eMin: -2.288787 at state 9 ( [ +0.000000 +0.000000 +0.000000 ] spin -1 )
	HOMO: -0.167361 at state 4 ( [ +0.333333 +0.333333 +0.000000 ] spin 1 )
	mu  : -0.160200
	LUMO: -0.159702 at state 17 ( [ -0.333333 -0.333333 +0.000000 ] spin -1 )
	eMax: +0.015616 at state 8 ( [ -0.333333 -0.333333 +0.000000 ] spin 1 )
	HOMO-LUMO gap: +0.007659
	Optical gap  : +0.007818 at state 17 ( [ -0.333333 -0.333333 +0.000000 ] spin -1 )
Dumping 'jdft.Ecomponents' ... done
IonicMinimize: Iter:   0  G: -352.471735663384834  |grad|_K:  2.976e-04  t[s]:    978.30

#--- Lowdin population analysis ---
# oxidation-state C +0.049 +0.058 +0.047 +0.055 +0.045 +0.051 +0.165 +0.141 +0.036 +0.045 +0.052 +0.195 +0.037 +0.052 +0.064 +0.133 +0.007 +0.053 +0.046 +0.048 +0.037 +0.037 +0.036 +0.036 +0.049 +0.048 +0.054 +0.018 +0.153 +0.063 +0.055 +0.047 +0.174 +0.050 +0.046 +0.038 +0.141 +0.178 +0.052 +0.047 +0.055 +0.050 +0.064 +0.050 +0.142
# magnetic-moments C -0.000 -0.008 -0.001 -0.002 -0.001 -0.003 -0.012 -0.009 -0.001 -0.000 -0.003 -0.011 -0.000 -0.002 -0.005 -0.006 +0.006 -0.002 -0.001 +0.001 -0.003 -0.004 +0.001 -0.001 -0.001 +0.001 +0.001 +0.011 -0.008 -0.006 +0.001 -0.002 -0.007 +0.001 +0.001 -0.001 +0.001 -0.004 -0.002 +0.001 -0.000 +0.002 -0.001 -0.000 -0.162
# oxidation-state N -0.299 -0.310 -0.270 -0.282
# magnetic-moments N +0.010 +0.009 +0.024 +0.018
# oxidation-state Ti +1.413
# magnetic-moments Ti -0.758
# oxidation-state O -0.102 -0.770
# magnetic-moments O -0.084 -0.001
# oxidation-state H +0.451 +0.445
# magnetic-moments H -0.000 +0.000


Computing DFT-D3 correction:
# coordination-number C 3.300 3.321 3.333 3.330 3.312 3.290 3.317 3.517 3.329 3.312 3.303 3.333 3.301 3.299 3.323 3.644 3.262 3.300 3.317 3.331 3.326 3.303 3.300 3.326 3.333 3.318 3.299 3.267 3.516 3.323 3.301 3.306 3.315 3.300 3.311 3.325 3.633 3.326 3.287 3.311 3.329 3.331 3.322 3.300 2.005
# coordination-number N 3.168 3.175 3.182 3.180
# coordination-number Ti 6.375
# coordination-number O 1.022 1.992
# coordination-number H 0.992 0.993
# diagonal-C6 C 24.29 24.07 23.94 23.97 24.17 24.37 24.11 21.39 23.99 24.16 24.26 23.95 24.27 24.29 24.05 19.80 24.61 24.29 24.11 23.96 24.02 24.25 24.28 24.01 23.94 24.10 24.29 24.57 21.40 24.05 24.27 24.23 24.14 24.28 24.17 24.02 19.91 24.02 24.40 24.17 23.98 23.96 24.06 24.28 29.48
# diagonal-C6 N 15.60 15.60 15.60 15.60
# diagonal-C6 Ti 321.59
# diagonal-C6 O 12.79 10.41
# diagonal-C6 H 3.09 3.09
EvdW_6 =   -0.043040
EvdW_8 =   -0.033294
Shifting auxilliary hamiltonian by 0.000000 to set nElectrons=225.107474

-------- Electronic minimization -----------
	Linear fluid (dielectric constant: 78.4, screening length: 8.12261 Bohr) occupying 0.717135 of unit cell:	Completed after 3 iterations at t[s]:   1032.90
	FillingsUpdate:  mu: -0.160200000  nElectrons: 225.107474  magneticMoment: [ Abs: 1.25206  Tot: -1.05998 ]
ElecMinimize: Iter:   0  G: -352.471734320927055  |grad|_K:  2.264e-07  alpha:  1.000e+00
	Linear fluid (dielectric constant: 78.4, screening length: 8.12261 Bohr) occupying 0.717121 of unit cell:	Completed after 11 iterations at t[s]:   1138.18
	Linear fluid (dielectric constant: 78.4, screening length: 8.12261 Bohr) occupying 0.717133 of unit cell:	Completed after 10 iterations at t[s]:   1181.67
	FillingsUpdate:  mu: -0.160200000  nElectrons: 225.110668  magneticMoment: [ Abs: 1.25365  Tot: -1.06194 ]
	SubspaceRotationAdjust: set factor to 1.62
ElecMinimize: Iter:   1  G: -352.471736427993164  |grad|_K:  3.132e-07  alpha:  1.889e-01  linmin: -1.947e-05  t[s]:   1230.73
	Linear fluid (dielectric constant: 78.4, screening length: 8.12261 Bohr) occupying 0.717127 of unit cell:	Completed after 8 iterations at t[s]:   1278.29
	Linear fluid (dielectric constant: 78.4, screening length: 8.12261 Bohr) occupying 0.717130 of unit cell:	Completed after 4 iterations at t[s]:   1317.32
	FillingsUpdate:  mu: -0.160200000  nElectrons: 225.109416  magneticMoment: [ Abs: 1.25328  Tot: -1.06142 ]
	SubspaceRotationAdjust: set factor to 0.965
ElecMinimize: Iter:   2  G: -352.471738150225406  |grad|_K:  1.471e-07  alpha:  8.363e-02  linmin:  3.725e-05  t[s]:   1367.68
	Linear fluid (dielectric constant: 78.4, screening length: 8.12261 Bohr) occupying 0.717129 of unit cell:	Completed after 2 iterations at t[s]:   1412.29
ElecMinimize: 	Predicted alpha/alphaT>3.000000, increasing alphaT to 2.508886e-01.
	Linear fluid (dielectric constant: 78.4, screening length: 8.12261 Bohr) occupying 0.717128 of unit cell:	Completed after 2 iterations at t[s]:   1449.50
	Linear fluid (dielectric constant: 78.4, screening length: 8.12261 Bohr) occupying 0.717127 of unit cell:	Completed after 0 iterations at t[s]:   1485.89
	FillingsUpdate:  mu: -0.160200000  nElectrons: 225.109920  magneticMoment: [ Abs: 1.25344  Tot: -1.06165 ]
	SubspaceRotationAdjust: set factor to 1.18
ElecMinimize: Iter:   3  G: -352.471739453826387  |grad|_K:  5.820e-08  alpha:  2.841e-01  linmin: -5.914e-04  t[s]:   1535.36
	Linear fluid (dielectric constant: 78.4, screening length: 8.12261 Bohr) occupying 0.717126 of unit cell:	Completed after 2 iterations at t[s]:   1579.77
	Linear fluid (dielectric constant: 78.4, screening length: 8.12261 Bohr) occupying 0.717126 of unit cell:	Completed after 0 iterations at t[s]:   1615.45
	FillingsUpdate:  mu: -0.160200000  nElectrons: 225.109959  magneticMoment: [ Abs: 1.25337  Tot: -1.06161 ]
	SubspaceRotationAdjust: set factor to 1.09
ElecMinimize: Iter:   4  G: -352.471739834979587  |grad|_K:  4.396e-08  alpha:  4.330e-01  linmin: -2.546e-03  t[s]:   1664.85
	Linear fluid (dielectric constant: 78.4, screening length: 8.12261 Bohr) occupying 0.717124 of unit cell:	Completed after 2 iterations at t[s]:   1709.54
	Linear fluid (dielectric constant: 78.4, screening length: 8.12261 Bohr) occupying 0.717125 of unit cell:	Completed after 0 iterations at t[s]:   1746.52
	FillingsUpdate:  mu: -0.160200000  nElectrons: 225.109740  magneticMoment: [ Abs: 1.25325  Tot: -1.06149 ]
	SubspaceRotationAdjust: set factor to 0.764
ElecMinimize: Iter:   5  G: -352.471739996026201  |grad|_K:  5.377e-08  alpha:  3.142e-01  linmin:  1.612e-04  t[s]:   1796.04
	Linear fluid (dielectric constant: 78.4, screening length: 8.12261 Bohr) occupying 0.717123 of unit cell:	Completed after 2 iterations at t[s]:   1839.91
	Linear fluid (dielectric constant: 78.4, screening length: 8.12261 Bohr) occupying 0.717124 of unit cell:	Completed after 1 iterations at t[s]:   1876.86
	FillingsUpdate:  mu: -0.160200000  nElectrons: 225.110051  magneticMoment: [ Abs: 1.25345  Tot: -1.06171 ]
	SubspaceRotationAdjust: set factor to 0.698
ElecMinimize: Iter:   6  G: -352.471740077378854  |grad|_K:  3.442e-08  alpha:  1.406e-01  linmin:  3.171e-04  t[s]:   1926.03
	Linear fluid (dielectric constant: 78.4, screening length: 8.12261 Bohr) occupying 0.717124 of unit cell:	Completed after 0 iterations at t[s]:   1967.64
ElecMinimize: 	Predicted alpha/alphaT>3.000000, increasing alphaT to 4.217598e-01.
	Linear fluid (dielectric constant: 78.4, screening length: 8.12261 Bohr) occupying 0.717123 of unit cell:	Completed after 2 iterations at t[s]:   2006.44
	Linear fluid (dielectric constant: 78.4, screening length: 8.12261 Bohr) occupying 0.717123 of unit cell:	Completed after 0 iterations at t[s]:   2042.24
	FillingsUpdate:  mu: -0.160200000  nElectrons: 225.109995  magneticMoment: [ Abs: 1.25346  Tot: -1.06172 ]
	SubspaceRotationAdjust: set factor to 0.592
ElecMinimize: Iter:   7  G: -352.471740126311602  |grad|_K:  2.023e-08  alpha:  2.224e-01  linmin:  4.653e-04  t[s]:   2092.09
ElecMinimize: Converged (|Delta G|<1.000000e-07 for 2 iters).
Setting wave functions to eigenvectors of Hamiltonian
Converging empty states (this may take a while): |deigs|: 2.382e-09

Computing DFT-D3 correction:
# coordination-number C 3.300 3.321 3.333 3.330 3.312 3.290 3.317 3.517 3.329 3.312 3.303 3.333 3.301 3.299 3.323 3.644 3.262 3.300 3.317 3.331 3.326 3.303 3.300 3.326 3.333 3.318 3.299 3.267 3.516 3.323 3.301 3.306 3.315 3.300 3.311 3.325 3.633 3.326 3.287 3.311 3.329 3.331 3.322 3.300 2.005
# coordination-number N 3.168 3.175 3.182 3.180
# coordination-number Ti 6.375
# coordination-number O 1.022 1.992
# coordination-number H 0.992 0.993
# diagonal-C6 C 24.29 24.07 23.94 23.97 24.17 24.37 24.11 21.39 23.99 24.16 24.26 23.95 24.27 24.29 24.05 19.80 24.61 24.29 24.11 23.96 24.02 24.25 24.28 24.01 23.94 24.10 24.29 24.57 21.40 24.05 24.27 24.23 24.14 24.28 24.17 24.02 19.91 24.02 24.40 24.17 23.98 23.96 24.06 24.28 29.48
# diagonal-C6 N 15.60 15.60 15.60 15.60
# diagonal-C6 Ti 321.59
# diagonal-C6 O 12.79 10.41
# diagonal-C6 H 3.09 3.09
EvdW_6 =   -0.043040
EvdW_8 =   -0.033294

# Ionic positions in cartesian coordinates:
ion C  -0.001124855262088   0.188971806352218  43.296632305867789 1
ion C  21.043254009352424   4.139788246010021  43.265965960202990 1
ion C  18.696959861544737   8.142591321079099  43.125213101775124 1
ion C  -7.048431507376890  12.144209591513611  43.128735254264470 1
ion C  -9.371616560271610  16.162393034138322  43.229299521932901 1
ion C   4.681473147862959   0.294080322654461   0.080355985231699 1
ion C   2.293236930472025   4.316211962292381   0.225759105182191 1
ion C  -0.124412179643366   8.124796776939645   0.164655954230372 1
ion C  -2.435320627648731  12.131762711618734  43.242137721015297 1
ion C  -4.726843579108360  16.164469763006867  43.242980257043335 1
ion C   9.373289648034742   0.177310622106348  43.270575409745447 1
ion C   7.082283230792923   4.283948585178146   0.172760155420713 1
ion C  -0.030329061036223  16.053354424006994   0.088153948524173 1
ion C   2.340792428665333  20.021575531792891  43.279453091918832 1
ion C  11.751929619163151   4.125267995218982  43.235293778392460 1
ion C   9.463503888618611   8.116836290169351   0.116505626055718 1
ion C   4.668578826064246  15.921782076304392   0.189499541247925 1
ion C   6.993323236079256  20.030230860007180  43.281022201362795 1
ion C  16.397208526122455   4.110263234043075  43.175229936609483 1
ion C  14.087791598055919   8.136454996488668  43.134153300128155 1
ion C  11.774654161881259  12.142654917015655  43.219640997644127 1
ion C   9.376179526711120  16.081756054394216   0.032658581657329 1
ion C  -0.013751249080028   2.878644253668279   0.083483094830180 1
ion C  -2.421678031031768   6.796328885429309  43.234432133233206 1
ion C  -4.743720781616083  10.795107237410820  43.130185625945501 1
ion C  -7.048723107108275  14.823231871685223  43.195144867845968 1
ion C  -9.375128758097603  18.851801354531709  43.292094887671915 1
ion C   4.680414626701184   3.011832646996073   0.188816514866517 1
ion C  -0.133575107215277  10.812907791129584   0.189254462211200 1
ion C  -2.405083661130364  14.804488801539096  43.277719001496116 1
ion C  -4.724114966001967  18.851584689074048  43.287910960539691 1
ion C   9.386077176727614   2.860589994011311   0.024996253443753 1
ion C   2.275037145867589  14.613321522499529   0.251654503367539 1
ion C  -0.017929535505882  18.741358755323940  43.284970437806891 1
ion C  14.076624006452354   2.767810226582302  43.214749733377225 1
ion C  11.777735706643973   6.800214046914284  43.229325503447541 1
ion C   9.462683223294690  10.824172855426667   0.086833521546275 1
ion C   7.073325763189684  14.648862809887650   0.145620049833945 1
ion C   4.667428380092552  18.640383357047963   0.073875767073827 1
ion C  18.724615010593155   2.776352108777697  43.227029481062395 1
ion C  16.394600482498355   6.788251426426880  43.114305829839076 1
ion C  14.086576648851285  10.809381152288500  43.139487245377936 1
ion C  11.744950783462938  14.819083838725883  43.236346014735929 1
ion C   9.360895602975997  18.767408435811852  43.282309894311389 1
ion C   3.296179619980162   7.677495526735302   5.180732227161498 1
ion N   2.140606887242931  12.015127829248289   0.474395032291001 1
ion N   7.188072807996790  12.057121106203798   0.235769790297495 1
ion N   2.171539372620557   6.929450029208365   0.418234444240809 1
ion N   7.194012029933945   6.868945976214467   0.339368028699098 1
ion Ti   4.811696147957065   9.461267299535201   1.889591373491247 1
ion O   2.292719946833925   6.691752869554509   6.845472210525381 1
ion O   7.238250004149969   3.070936435360886   5.721598474022127 1
ion H   8.441658011865343   3.477653011202464   7.073948591982251 1
ion H   6.069761541781289   1.869951733217363   6.517319307973402 1

# Forces in Cartesian coordinates:
force C   0.000065260830719   0.000077234605507   0.000061641960105 1
force C   0.000028259112290  -0.000052958495292   0.000026910256823 1
force C   0.000060078921601   0.000095117390858   0.000227725926399 1
force C   0.000005467225189   0.000143741459265  -0.000048510922076 1
force C  -0.000162683435677   0.000037404120911  -0.000008040492776 1
force C   0.000047255595326   0.000145298754194  -0.000020745440145 1
force C  -0.000027730006800  -0.000005489390391  -0.000051792519865 1
force C  -0.000000976636407  -0.000096301710695  -0.000088686303744 1
force C   0.000077679016492   0.000057012620466   0.000190649957955 1
force C   0.000076972811225   0.000148699458961  -0.000061216512474 1
force C   0.000135111544328  -0.000037320123769   0.000018560903233 1
force C   0.000067414819731  -0.000110729895098  -0.000301863496874 1
force C   0.000038892629350   0.000043456217722   0.000156752205257 1
force C   0.000036176561504  -0.000099699434306   0.000180502687688 1
force C  -0.000083981606794  -0.000021797010938   0.000141905847527 1
force C  -0.000131897163428  -0.000072207135789  -0.000161975699511 1
force C  -0.000037462941655  -0.000079363789670  -0.000053700673962 1
force C   0.000014598385009  -0.000169859451012  -0.000018843757235 1
force C  -0.000060856421577   0.000055611320044   0.000072926078531 1
force C  -0.000035398807036   0.000087369997289   0.000091572803706 1
force C  -0.000062515362057  -0.000066843431933   0.000020600941421 1
force C   0.000076402828598   0.000015927917903   0.000047345601776 1
force C  -0.000023861967748   0.000011133264402  -0.000052242976163 1
force C  -0.000141198283738  -0.000119970413052   0.000066691075137 1
force C  -0.000088064317661  -0.000012706433011   0.000127025606291 1
force C  -0.000112102091799   0.000048147993003  -0.000183523485106 1
force C  -0.000020932462339   0.000035328855177   0.000066948184027 1
force C  -0.000067026344609   0.000092015604751  -0.000263553858786 1
force C   0.000004832577446  -0.000138367507907  -0.000039483697909 1
force C  -0.000005797698333  -0.000068550916312   0.000136767559904 1
force C   0.000032353430317   0.000092267882516   0.000055707644945 1
force C   0.000134582137189  -0.000056850781841  -0.000070948327656 1
force C   0.000022939681039  -0.000064735657901   0.000005452509545 1
force C   0.000088392870711  -0.000013612702305   0.000105018837008 1
force C  -0.000054664179929   0.000049327186009   0.000134633442092 1
force C   0.000044658406020   0.000059688315903   0.000107375281975 1
force C  -0.000020356610350  -0.000035460565423  -0.000142295732633 1
force C   0.000074608458870   0.000095150359239  -0.000112333276449 1
force C   0.000042574430864  -0.000113097630623   0.000060745706306 1
force C   0.000000130187849  -0.000053924225481   0.000081031951036 1
force C   0.000004543260774   0.000165516252628   0.000184140014304 1
force C  -0.000036078566669   0.000034173675205   0.000041791170566 1
force C  -0.000080066280520  -0.000175049359997   0.000040969454264 1
force C   0.000128614631446  -0.000027346914868   0.000058178030162 1
force C  -0.000722656408072  -0.001041234718641   0.001405189314455 1
force N   0.000210037390906  -0.000097062770455  -0.000093199091806 1
force N  -0.000023014362821   0.000124850291900  -0.000197857018949 1
force N   0.000011710604211  -0.000001831264926   0.000027669655254 1
force N  -0.000124937121109  -0.000025521516479  -0.000319628498183 1
force Ti  -0.000121028453022   0.000073046648171   0.000184691747533 1
force O   0.000598601922517   0.000964344838151  -0.002172763845100 1
force O  -0.000019128612689   0.000030292855920   0.000022628301800 1
force H   0.000047045564149  -0.000107447806396   0.000209511585197 1
force H   0.000235894972858  -0.000041198284147   0.000225237585997 1

# Energy components:
   A_diel =        0.0152045873444199
   Eewald =     1658.7277540979202968
       EH =     1960.8967216385722168
     Eloc =    -4152.4367134130689010
      Enl =       52.5742981357334713
     EvdW =       -0.0763339011343491
      Exc =     -109.1691295662886318
 Exc_core =        3.3095749309684752
       KE =      197.6146237168694597
  MuShift =        0.0098673669618615
-------------------------------------
     Etot =     -388.5341324061218984
       TS =        0.0002288490325004
-------------------------------------
        F =     -388.5343612551544084
      muN =      -36.0626211288427854
-------------------------------------
        G =     -352.4717401263116017


Dumping 'jdft.fillings' ... done
Dumping 'jdft.wfns' ... done
Dumping 'jdft.fluidState' ... done
Dumping 'jdft.ionpos' ... done
Dumping 'jdft.lattice' ... done
Dumping 'jdft.eigenvals' ... done
Dumping 'jdft.eigStats' ... 
	eMin: -2.288876 at state 9 ( [ +0.000000 +0.000000 +0.000000 ] spin -1 )
	HOMO: -0.167365 at state 4 ( [ +0.333333 +0.333333 +0.000000 ] spin 1 )
	mu  : -0.160200
	LUMO: -0.159747 at state 13 ( [ +0.333333 +0.333333 +0.000000 ] spin -1 )
	eMax: +0.015611 at state 8 ( [ -0.333333 -0.333333 +0.000000 ] spin 1 )
	HOMO-LUMO gap: +0.007618
	Optical gap  : +0.007789 at state 13 ( [ +0.333333 +0.333333 +0.000000 ] spin -1 )
Dumping 'jdft.Ecomponents' ... done
IonicMinimize: Iter:   1  G: -352.471740126311602  |grad|_K:  2.632e-04  alpha:  1.000e+00  linmin:  4.624e-01  t[s]:   2213.47

#--- Lowdin population analysis ---
# oxidation-state C +0.050 +0.058 +0.047 +0.055 +0.045 +0.051 +0.165 +0.141 +0.036 +0.045 +0.052 +0.195 +0.037 +0.052 +0.064 +0.133 +0.007 +0.053 +0.046 +0.048 +0.037 +0.037 +0.036 +0.036 +0.049 +0.048 +0.054 +0.018 +0.153 +0.063 +0.055 +0.047 +0.174 +0.050 +0.046 +0.038 +0.141 +0.178 +0.052 +0.047 +0.055 +0.050 +0.064 +0.050 +0.141
# magnetic-moments C -0.000 -0.008 -0.001 -0.002 -0.001 -0.003 -0.012 -0.009 -0.001 -0.000 -0.003 -0.011 -0.000 -0.002 -0.005 -0.006 +0.006 -0.002 -0.001 +0.001 -0.003 -0.004 +0.001 -0.001 -0.001 +0.001 +0.001 +0.011 -0.008 -0.006 +0.001 -0.002 -0.007 +0.001 +0.001 -0.001 +0.001 -0.004 -0.002 +0.001 -0.000 +0.002 -0.001 -0.001 -0.164
# oxidation-state N -0.299 -0.310 -0.270 -0.282
# magnetic-moments N +0.010 +0.009 +0.024 +0.018
# oxidation-state Ti +1.412
# magnetic-moments Ti -0.757
# oxidation-state O -0.104 -0.770
# magnetic-moments O -0.085 -0.001
# oxidation-state H +0.451 +0.445
# magnetic-moments H -0.000 +0.000


Computing DFT-D3 correction:
# coordination-number C 3.300 3.321 3.333 3.330 3.312 3.290 3.317 3.517 3.329 3.312 3.303 3.333 3.301 3.299 3.323 3.644 3.262 3.300 3.317 3.331 3.326 3.303 3.300 3.326 3.333 3.318 3.299 3.267 3.516 3.323 3.301 3.306 3.315 3.300 3.311 3.325 3.633 3.326 3.287 3.311 3.329 3.332 3.322 3.300 2.005
# coordination-number N 3.168 3.175 3.182 3.180
# coordination-number Ti 6.375
# coordination-number O 1.022 1.992
# coordination-number H 0.992 0.993
# diagonal-C6 C 24.29 24.07 23.94 23.97 24.17 24.37 24.11 21.39 23.99 24.16 24.26 23.95 24.27 24.29 24.05 19.80 24.61 24.29 24.11 23.96 24.02 24.25 24.28 24.01 23.94 24.10 24.29 24.57 21.40 24.05 24.27 24.23 24.14 24.28 24.17 24.02 19.91 24.02 24.40 24.17 23.98 23.96 24.06 24.28 29.48
# diagonal-C6 N 15.60 15.60 15.60 15.60
# diagonal-C6 Ti 321.59
# diagonal-C6 O 12.79 10.41
# diagonal-C6 H 3.09 3.09
EvdW_6 =   -0.043040
EvdW_8 =   -0.033294
Shifting auxilliary hamiltonian by 0.000004 to set nElectrons=225.109995

-------- Electronic minimization -----------
	Linear fluid (dielectric constant: 78.4, screening length: 8.12261 Bohr) occupying 0.717125 of unit cell:	Completed after 3 iterations at t[s]:   2267.60
	FillingsUpdate:  mu: -0.160200000  nElectrons: 225.109995  magneticMoment: [ Abs: 1.25366  Tot: -1.06187 ]
ElecMinimize: Iter:   0  G: -352.471742005373528  |grad|_K:  1.034e-07  alpha:  1.000e+00
	Linear fluid (dielectric constant: 78.4, screening length: 8.12261 Bohr) occupying 0.717127 of unit cell:	Completed after 7 iterations at t[s]:   2368.58
	Linear fluid (dielectric constant: 78.4, screening length: 8.12261 Bohr) occupying 0.717126 of unit cell:	Completed after 6 iterations at t[s]:   2408.48
	FillingsUpdate:  mu: -0.160200000  nElectrons: 225.109007  magneticMoment: [ Abs: 1.25313  Tot: -1.06124 ]
	SubspaceRotationAdjust: set factor to 0.35
ElecMinimize: Iter:   1  G: -352.471742523217870  |grad|_K:  5.807e-08  alpha:  2.115e-01  linmin:  9.981e-05  t[s]:   2458.23
	Linear fluid (dielectric constant: 78.4, screening length: 8.12261 Bohr) occupying 0.717126 of unit cell:	Completed after 1 iterations at t[s]:   2501.47
	Linear fluid (dielectric constant: 78.4, screening length: 8.12261 Bohr) occupying 0.717127 of unit cell:	Completed after 2 iterations at t[s]:   2538.93
	FillingsUpdate:  mu: -0.160200000  nElectrons: 225.109674  magneticMoment: [ Abs: 1.25324  Tot: -1.06146 ]
	SubspaceRotationAdjust: set factor to 0.528
ElecMinimize: Iter:   2  G: -352.471742848750296  |grad|_K:  2.057e-08  alpha:  4.472e-01  linmin: -1.777e-03  t[s]:   2590.25
	Linear fluid (dielectric constant: 78.4, screening length: 8.12261 Bohr) occupying 0.717128 of unit cell:	Completed after 0 iterations at t[s]:   2632.06
	Linear fluid (dielectric constant: 78.4, screening length: 8.12261 Bohr) occupying 0.717129 of unit cell:	Completed after 2 iterations at t[s]:   2669.63
	FillingsUpdate:  mu: -0.160200000  nElectrons: 225.109910  magneticMoment: [ Abs: 1.25323  Tot: -1.06149 ]
	SubspaceRotationAdjust: set factor to 0.462
ElecMinimize: Iter:   3  G: -352.471742879553972  |grad|_K:  3.501e-08  alpha:  1.225e+00  linmin:  3.156e-03  t[s]:   2718.98
	Linear fluid (dielectric constant: 78.4, screening length: 8.12261 Bohr) occupying 0.717135 of unit cell:	Completed after 3 iterations at t[s]:   2763.82
	Linear fluid (dielectric constant: 78.4, screening length: 8.12261 Bohr) occupying 0.717130 of unit cell:	Completed after 3 iterations at t[s]:   2802.07
	FillingsUpdate:  mu: -0.160200000  nElectrons: 225.109803  magneticMoment: [ Abs: 1.25315  Tot: -1.06141 ]
	SubspaceRotationAdjust: set factor to 0.54
ElecMinimize: Iter:   4  G: -352.471742883988156  |grad|_K:  2.994e-08  alpha:  8.259e-02  linmin:  1.032e-04  t[s]:   2852.78
ElecMinimize: Converged (|Delta G|<1.000000e-07 for 2 iters).
Setting wave functions to eigenvectors of Hamiltonian
Converging empty states (this may take a while): |deigs|: 1.543e-09

Computing DFT-D3 correction:
# coordination-number C 3.300 3.321 3.333 3.330 3.312 3.290 3.317 3.517 3.329 3.312 3.303 3.333 3.301 3.299 3.323 3.644 3.262 3.300 3.317 3.331 3.326 3.303 3.300 3.326 3.333 3.318 3.299 3.267 3.516 3.323 3.301 3.306 3.315 3.300 3.311 3.325 3.633 3.326 3.287 3.311 3.329 3.332 3.322 3.300 2.005
# coordination-number N 3.168 3.175 3.182 3.180
# coordination-number Ti 6.375
# coordination-number O 1.022 1.992
# coordination-number H 0.992 0.993
# diagonal-C6 C 24.29 24.07 23.94 23.97 24.17 24.37 24.11 21.39 23.99 24.16 24.26 23.95 24.27 24.29 24.05 19.80 24.61 24.29 24.11 23.96 24.02 24.25 24.28 24.01 23.94 24.10 24.29 24.57 21.40 24.05 24.27 24.23 24.14 24.28 24.17 24.02 19.91 24.02 24.40 24.17 23.98 23.96 24.06 24.28 29.48
# diagonal-C6 N 15.60 15.60 15.60 15.60
# diagonal-C6 Ti 321.59
# diagonal-C6 O 12.79 10.41
# diagonal-C6 H 3.09 3.09
EvdW_6 =   -0.043040
EvdW_8 =   -0.033294

# Ionic positions in cartesian coordinates:
ion C  -0.001100746245444   0.189006977064296  43.296658210889795 1
ion C  21.043261914153220   4.139761483964991  43.265975882737337 1
ion C  18.696976102913496   8.142629861492431  43.125308683709918 1
ion C  -7.048437412504233  12.144257071730991  43.128712978303099 1
ion C  -9.371693240229842  16.162404279149388  43.229295437072480 1
ion C   4.681484999770712   0.294142431195349   0.080345898571834 1
ion C   2.293222788705727   4.316207465853210   0.225736177537689 1
ion C  -0.124424127537383   8.124754543494236   0.164616574685448 1
ion C  -2.435303836666407  12.131773350102966  43.242216693999445 1
ion C  -4.726817225052838  16.164522422829069  43.242952965490197 1
ion C   9.373344951678469   0.177300030331310  43.270582567625311 1
ion C   7.082313739614003   4.283910041379829   0.172630085729039 1
ion C  -0.030325244426544  16.053371958222218   0.088219838581611 1
ion C   2.340814039969565  20.021541010456897  43.279528964730176 1
ion C  11.751898379199149   4.125273821640528  43.235352720647512 1
ion C   9.463455194982316   8.116812424322095   0.116434894213860 1
ion C   4.668561748125148  15.921749891185462   0.189475604077445 1
ion C   6.993332045703237  20.030163696390993  43.281012916369235 1
ion C  16.397184012135977   4.110293939245595  43.175259580489993 1
ion C  14.087780659547652   8.136494712661678  43.134191617234528 1
ion C  11.774627956316531  12.142626757395725  43.219648772908492 1
ion C   9.376222009240964  16.081767195202683   0.032677936211763 1
ion C  -0.013761062763447   2.878652038211830   0.083460294504967 1
ion C  -2.421731106246926   6.796284675246326  43.234459412573052 1
ion C  -4.743750698030127  10.795110809838544  43.130239172365158 1
ion C  -7.048764358604250  14.823267836238555  43.195065538022739 1
ion C  -9.375130513891259  18.851823054693980  43.292123295816289 1
ion C   4.680382705434491   3.011874929338585   0.188702897209766 1
ion C  -0.133564144926635  10.812854129041327   0.189238144928788 1
ion C  -2.405076483830380  14.804478546723113  43.277776482992465 1
ion C  -4.724096937892218  18.851630313342497  43.287934135348245 1
ion C   9.386132069307104   2.860556226419377   0.024965119928304 1
ion C   2.275052107265564  14.613303525973965   0.251656512435935 1
ion C  -0.017896814628857  18.741352600225767  43.285014598080295 1
ion C  14.076587146401227   2.767823065405366  43.214806771423092 1
ion C  11.777747617960721   6.800228287302346  43.229370156203373 1
ion C   9.462671218474158  10.824160257083086   0.086772332212526 1
ion C   7.073348978899766  14.648906138071027   0.145571784186484 1
ion C   4.667439539570221  18.640329186648842   0.073900688633352 1
ion C  18.724621325410077   2.776330202106906  43.227063189647922 1
ion C  16.394604572205328   6.788328839002575  43.114382892407839 1
ion C  14.086565102963924  10.809402903731982  43.139504489824347 1
ion C  11.744911171126633  14.819012797327016  43.236362706918150 1
ion C   9.360946629981783  18.767394785145669  43.282333766038271 1
ion C   3.295945998810271   7.677126279116711   5.181223352976157 1
ion N   2.140692543075497  12.015078782369596   0.474351762296901 1
ion N   7.188064434273754  12.057171993780180   0.235683140011931 1
ion N   2.171548230731998   6.929450112134749   0.418241868717789 1
ion N   7.193950543721060   6.868927613846009   0.339230112094221 1
ion Ti   4.811641693077432   9.461312149350158   1.889662762806795 1
ion O   2.292900032414787   6.692095246610800   6.844667661939573 1
ion O   7.238248707180967   3.070966837801405   5.721591160084483 1
ion H   8.441681121724333   3.477610308080022   7.074042098692967 1
ion H   6.069845921409498   1.869921164480254   6.517423696863267 1

# Forces in Cartesian coordinates:
force C   0.000061117014724   0.000065419994962   0.000070686594554 1
force C   0.000002119140171  -0.000064691366942   0.000033890340685 1
force C   0.000026849136944   0.000087567535117   0.000251946578573 1
force C  -0.000010477726521   0.000116546102068  -0.000051303678864 1
force C  -0.000137413280233   0.000029826347644  -0.000012294620973 1
force C   0.000027628407580   0.000115674904454  -0.000033177129518 1
force C  -0.000014127422719   0.000009081107129  -0.000077989185952 1
force C   0.000006029951027  -0.000082931484722  -0.000089899526208 1
force C   0.000039281716296   0.000022118922965   0.000203586978849 1
force C   0.000052619764419   0.000129762609539  -0.000062106806457 1
force C   0.000126797426428  -0.000033734061948   0.000024805983582 1
force C   0.000045141456196  -0.000078925309944  -0.000363022722602 1
force C   0.000016126375889   0.000040723045952   0.000173622687216 1
force C   0.000049974716037  -0.000073825502114   0.000198231721991 1
force C  -0.000047482502334  -0.000003288138938   0.000151018059716 1
force C  -0.000129180579857  -0.000042122240268  -0.000193530765153 1
force C  -0.000033050187495  -0.000082931086626  -0.000056843976392 1
force C   0.000022792747508  -0.000147793705370  -0.000011099772576 1
force C  -0.000052422315998   0.000053958924058   0.000097634344693 1
force C  -0.000007907301116   0.000082349710755   0.000116416740726 1
force C  -0.000048923106792  -0.000059023097442   0.000013817917353 1
force C   0.000081965293213   0.000025089283295   0.000049035870741 1
force C  -0.000019526685935  -0.000002750152132  -0.000048025061550 1
force C  -0.000115549484977  -0.000094025800367   0.000080385969261 1
force C  -0.000060472027640   0.000014874916174   0.000149709353470 1
force C  -0.000093819722753   0.000080710650578  -0.000196801502805 1
force C  -0.000006063546851   0.000041396569299   0.000072769047612 1
force C  -0.000062660347100   0.000079131709106  -0.000291133772350 1
force C   0.000027687001351  -0.000149759380545  -0.000039916709477 1
force C  -0.000008429226093  -0.000022735521482   0.000152369666238 1
force C   0.000037994351255   0.000087755067434   0.000048491710705 1
force C   0.000114581403220  -0.000065820120361  -0.000081814352088 1
force C   0.000049361696995  -0.000034417893080   0.000002254531685 1
force C   0.000074530071920  -0.000021985615348   0.000132410562695 1
force C  -0.000042448299223   0.000039820248882   0.000159979651016 1
force C   0.000027247368876   0.000036114350481   0.000107986141482 1
force C  -0.000054262444512  -0.000054762934883  -0.000161183315721 1
force C   0.000056647902533   0.000087248495238  -0.000124117354751 1
force C   0.000033610645533  -0.000099936846526   0.000064919729532 1
force C  -0.000004805571951  -0.000062104718211   0.000083671281013 1
force C  -0.000002559938176   0.000153919816991   0.000207716654854 1
force C  -0.000015206811888   0.000046149166347   0.000042970575743 1
force C  -0.000067268214557  -0.000142840880240   0.000044065116631 1
force C   0.000120914361905  -0.000025642432670   0.000061756987327 1
force C  -0.000072612590553  -0.000357311601148   0.000367830437502 1
force N   0.000076071877020  -0.000081193790095  -0.000112280989132 1
force N   0.000056271616897   0.000136794851839  -0.000241116922420 1
force N  -0.000011612604008  -0.000021185544235  -0.000022460149515 1
force N  -0.000055709982028  -0.000095680293096  -0.000388943915076 1
force Ti  -0.000140705112629   0.000096764354779  -0.000001380287510 1
force O  -0.000174357029643   0.000220934464764  -0.000954941300366 1
force O  -0.000011618522803   0.000029521737738   0.000051242555149 1
force H   0.000034612142371  -0.000112867229238   0.000186804755409 1
force H   0.000239784733807  -0.000043291557229   0.000218442565186 1

# Energy components:
   A_diel =        0.0151983673616312
   Eewald =     1658.7385753584519534
       EH =     1960.9121841214446249
     Eloc =    -4152.4648755045654980
      Enl =       52.5749313878013567
     EvdW =       -0.0763339591194522
      Exc =     -109.1698884576084083
 Exc_core =        3.3095749452878169
       KE =      197.6166597845638080
  MuShift =        0.0098694896992861
-------------------------------------
     Etot =     -388.5341044666828907
       TS =        0.0002288735778493
-------------------------------------
        F =     -388.5343333402607300
      muN =      -36.0625904562725879
-------------------------------------
        G =     -352.4717428839881563


Dumping 'jdft.fillings' ... done
Dumping 'jdft.wfns' ... done
Dumping 'jdft.fluidState' ... done
Dumping 'jdft.ionpos' ... done
Dumping 'jdft.lattice' ... done
Dumping 'jdft.eigenvals' ... done
Dumping 'jdft.eigStats' ... 
	eMin: -2.288680 at state 9 ( [ +0.000000 +0.000000 +0.000000 ] spin -1 )
	HOMO: -0.167352 at state 4 ( [ +0.333333 +0.333333 +0.000000 ] spin 1 )
	mu  : -0.160200
	LUMO: -0.159692 at state 17 ( [ -0.333333 -0.333333 +0.000000 ] spin -1 )
	eMax: +0.015614 at state 8 ( [ -0.333333 -0.333333 +0.000000 ] spin 1 )
	HOMO-LUMO gap: +0.007659
	Optical gap  : +0.007822 at state 17 ( [ -0.333333 -0.333333 +0.000000 ] spin -1 )
Dumping 'jdft.Ecomponents' ... done
IonicMinimize: Iter:   2  G: -352.471742883988156  |grad|_K:  1.342e-04  alpha:  1.000e+00  linmin: -8.601e-01  t[s]:   2973.13

#--- Lowdin population analysis ---
# oxidation-state C +0.050 +0.057 +0.047 +0.055 +0.045 +0.051 +0.165 +0.141 +0.036 +0.045 +0.052 +0.195 +0.037 +0.052 +0.064 +0.133 +0.007 +0.053 +0.046 +0.048 +0.037 +0.037 +0.036 +0.036 +0.049 +0.048 +0.054 +0.018 +0.153 +0.063 +0.055 +0.047 +0.174 +0.050 +0.046 +0.038 +0.141 +0.178 +0.052 +0.047 +0.055 +0.050 +0.064 +0.050 +0.141
# magnetic-moments C -0.000 -0.008 -0.001 -0.002 -0.001 -0.003 -0.012 -0.009 -0.001 -0.000 -0.003 -0.011 -0.000 -0.002 -0.005 -0.006 +0.006 -0.002 -0.001 +0.001 -0.003 -0.004 +0.001 -0.001 -0.001 +0.001 +0.001 +0.011 -0.008 -0.006 +0.001 -0.002 -0.007 +0.001 +0.001 -0.001 +0.001 -0.004 -0.002 +0.001 -0.000 +0.002 -0.001 -0.001 -0.163
# oxidation-state N -0.299 -0.310 -0.270 -0.282
# magnetic-moments N +0.010 +0.009 +0.024 +0.018
# oxidation-state Ti +1.414
# magnetic-moments Ti -0.756
# oxidation-state O -0.104 -0.770
# magnetic-moments O -0.085 -0.001
# oxidation-state H +0.451 +0.445
# magnetic-moments H -0.000 +0.000


Computing DFT-D3 correction:
# coordination-number C 3.300 3.321 3.333 3.330 3.312 3.290 3.317 3.517 3.329 3.312 3.303 3.333 3.301 3.299 3.323 3.643 3.262 3.300 3.317 3.331 3.326 3.303 3.300 3.326 3.333 3.318 3.299 3.267 3.516 3.323 3.301 3.306 3.315 3.300 3.311 3.325 3.633 3.326 3.287 3.311 3.329 3.332 3.322 3.300 2.005
# coordination-number N 3.168 3.175 3.182 3.180
# coordination-number Ti 6.375
# coordination-number O 1.022 1.992
# coordination-number H 0.992 0.993
# diagonal-C6 C 24.28 24.07 23.94 23.97 24.17 24.38 24.11 21.39 23.99 24.16 24.26 23.95 24.27 24.29 24.05 19.80 24.61 24.29 24.11 23.96 24.02 24.25 24.28 24.01 23.94 24.10 24.29 24.57 21.40 24.05 24.27 24.23 24.14 24.28 24.17 24.02 19.91 24.02 24.40 24.17 23.98 23.96 24.06 24.28 29.48
# diagonal-C6 N 15.60 15.60 15.60 15.60
# diagonal-C6 Ti 321.59
# diagonal-C6 O 12.79 10.41
# diagonal-C6 H 3.09 3.09
EvdW_6 =   -0.043040
EvdW_8 =   -0.033294
Shifting auxilliary hamiltonian by -0.000042 to set nElectrons=225.109803

-------- Electronic minimization -----------
	Linear fluid (dielectric constant: 78.4, screening length: 8.12261 Bohr) occupying 0.717130 of unit cell:	Completed after 3 iterations at t[s]:   3028.21
	FillingsUpdate:  mu: -0.160200000  nElectrons: 225.109803  magneticMoment: [ Abs: 1.25274  Tot: -1.06110 ]
ElecMinimize: Iter:   0  G: -352.471743747043661  |grad|_K:  1.456e-07  alpha:  1.000e+00
	Linear fluid (dielectric constant: 78.4, screening length: 8.12261 Bohr) occupying 0.717131 of unit cell:	Completed after 7 iterations at t[s]:   3133.38
	Linear fluid (dielectric constant: 78.4, screening length: 8.12261 Bohr) occupying 0.717130 of unit cell:	Completed after 7 iterations at t[s]:   3174.19
	FillingsUpdate:  mu: -0.160200000  nElectrons: 225.110546  magneticMoment: [ Abs: 1.25328  Tot: -1.06167 ]
	SubspaceRotationAdjust: set factor to 0.385
ElecMinimize: Iter:   1  G: -352.471744710975315  |grad|_K:  7.405e-08  alpha:  2.099e-01  linmin: -3.890e-05  t[s]:   3225.34
	Linear fluid (dielectric constant: 78.4, screening length: 8.12261 Bohr) occupying 0.717130 of unit cell:	Completed after 2 iterations at t[s]:   3269.34
	Linear fluid (dielectric constant: 78.4, screening length: 8.12261 Bohr) occupying 0.717130 of unit cell:	Completed after 2 iterations at t[s]:   3307.50
	FillingsUpdate:  mu: -0.160200000  nElectrons: 225.108439  magneticMoment: [ Abs: 1.25272  Tot: -1.06076 ]
	SubspaceRotationAdjust: set factor to 0.631
ElecMinimize: Iter:   2  G: -352.471745308411357  |grad|_K:  2.954e-08  alpha:  4.837e-01  linmin: -2.048e-03  t[s]:   3356.73
	Linear fluid (dielectric constant: 78.4, screening length: 8.12261 Bohr) occupying 0.717131 of unit cell:	Completed after 2 iterations at t[s]:   3401.03
	Linear fluid (dielectric constant: 78.4, screening length: 8.12261 Bohr) occupying 0.717131 of unit cell:	Completed after 0 iterations at t[s]:   3436.50
	FillingsUpdate:  mu: -0.160200000  nElectrons: 225.107890  magneticMoment: [ Abs: 1.25249  Tot: -1.06045 ]
	SubspaceRotationAdjust: set factor to 0.543
ElecMinimize: Iter:   3  G: -352.471745399909594  |grad|_K:  2.444e-08  alpha:  4.552e-01  linmin: -2.512e-03  t[s]:   3488.03
	Linear fluid (dielectric constant: 78.4, screening length: 8.12261 Bohr) occupying 0.717132 of unit cell:	Completed after 1 iterations at t[s]:   3531.92
	Linear fluid (dielectric constant: 78.4, screening length: 8.12261 Bohr) occupying 0.717132 of unit cell:	Completed after 0 iterations at t[s]:   3568.21
	FillingsUpdate:  mu: -0.160200000  nElectrons: 225.107970  magneticMoment: [ Abs: 1.25250  Tot: -1.06047 ]
	SubspaceRotationAdjust: set factor to 0.554
ElecMinimize: Iter:   4  G: -352.471745454183974  |grad|_K:  1.306e-08  alpha:  3.794e-01  linmin: -7.318e-04  t[s]:   3617.62
ElecMinimize: Converged (|Delta G|<1.000000e-07 for 2 iters).
Setting wave functions to eigenvectors of Hamiltonian
Converging empty states (this may take a while): |deigs|: 1.741e-09

Computing DFT-D3 correction:
[...]
# coordination-number N 3.168 3.176 3.184 3.181
# coordination-number Ti 6.403
# coordination-number O 1.022 1.991
# coordination-number H 0.992 0.993
# diagonal-C6 C 24.28 24.07 23.94 23.97 24.17 24.37 24.10 21.39 23.99 24.16 24.26 23.93 24.27 24.29 24.05 19.68 24.61 24.28 24.11 23.96 24.02 24.25 24.28 24.01 23.93 24.10 24.29 24.57 21.39 24.05 24.27 24.22 24.13 24.28 24.17 24.02 19.79 24.00 24.40 24.17 23.98 23.95 24.06 24.28 29.48
# diagonal-C6 N 15.60 15.60 15.60 15.60
# diagonal-C6 Ti 321.59
# diagonal-C6 O 12.79 10.41
# diagonal-C6 H 3.09 3.09
EvdW_6 =   -0.043016
EvdW_8 =   -0.033251
Shifting auxilliary hamiltonian by 0.000012 to set nElectrons=225.108874

-------- Electronic minimization -----------
	Linear fluid (dielectric constant: 78.4, screening length: 8.12261 Bohr) occupying 0.717150 of unit cell:	Completed after 5 iterations at t[s]:  29655.71
	FillingsUpdate:  mu: -0.160200000  nElectrons: 225.108874  magneticMoment: [ Abs: 1.24617  Tot: -1.05570 ]
ElecMinimize: Iter:   0  G: -352.471868381620538  |grad|_K:  2.261e-07  alpha:  1.000e+00
	Linear fluid (dielectric constant: 78.4, screening length: 8.12261 Bohr) occupying 0.717148 of unit cell:	Completed after 5 iterations at t[s]:  29757.91
	Linear fluid (dielectric constant: 78.4, screening length: 8.12261 Bohr) occupying 0.717149 of unit cell:	Completed after 3 iterations at t[s]:  29796.07
	FillingsUpdate:  mu: -0.160200000  nElectrons: 225.107805  magneticMoment: [ Abs: 1.24530  Tot: -1.05484 ]
	SubspaceRotationAdjust: set factor to 0.409
ElecMinimize: Iter:   1  G: -352.471873555857428  |grad|_K:  1.735e-07  alpha:  4.750e-01  linmin:  1.128e-04  t[s]:  29846.80
	Linear fluid (dielectric constant: 78.4, screening length: 8.12261 Bohr) occupying 0.717149 of unit cell:	Completed after 7 iterations at t[s]:  29895.13
	Linear fluid (dielectric constant: 78.4, screening length: 8.12261 Bohr) occupying 0.717149 of unit cell:	Completed after 3 iterations at t[s]:  29934.64
	FillingsUpdate:  mu: -0.160200000  nElectrons: 225.109630  magneticMoment: [ Abs: 1.24603  Tot: -1.05578 ]
	SubspaceRotationAdjust: set factor to 0.265
ElecMinimize: Iter:   2  G: -352.471875141508349  |grad|_K:  5.943e-08  alpha:  2.517e-01  linmin:  2.489e-04  t[s]:  29984.65
	Linear fluid (dielectric constant: 78.4, screening length: 8.12261 Bohr) occupying 0.717149 of unit cell:	Completed after 0 iterations at t[s]:  30026.81
ElecMinimize: 	Predicted alpha/alphaT>3.000000, increasing alphaT to 7.551233e-01.
	Linear fluid (dielectric constant: 78.4, screening length: 8.12261 Bohr) occupying 0.717148 of unit cell:	Completed after 3 iterations at t[s]:  30065.55
	Linear fluid (dielectric constant: 78.4, screening length: 8.12261 Bohr) occupying 0.717148 of unit cell:	Completed after 0 iterations at t[s]:  30102.16
	FillingsUpdate:  mu: -0.160200000  nElectrons: 225.109191  magneticMoment: [ Abs: 1.24589  Tot: -1.05560 ]
	SubspaceRotationAdjust: set factor to 0.269
ElecMinimize: Iter:   3  G: -352.471875587400973  |grad|_K:  4.021e-08  alpha:  5.945e-01  linmin:  1.132e-03  t[s]:  30153.20
	Linear fluid (dielectric constant: 78.4, screening length: 8.12261 Bohr) occupying 0.717147 of unit cell:	Completed after 1 iterations at t[s]:  30196.73
	Linear fluid (dielectric constant: 78.4, screening length: 8.12261 Bohr) occupying 0.717147 of unit cell:	Completed after 0 iterations at t[s]:  30232.38
	FillingsUpdate:  mu: -0.160200000  nElectrons: 225.109082  magneticMoment: [ Abs: 1.24583  Tot: -1.05555 ]
	SubspaceRotationAdjust: set factor to 0.319
ElecMinimize: Iter:   4  G: -352.471875732161436  |grad|_K:  2.030e-08  alpha:  4.841e-01  linmin: -2.230e-03  t[s]:  30281.78
	Linear fluid (dielectric constant: 78.4, screening length: 8.12261 Bohr) occupying 0.717147 of unit cell:	Completed after 0 iterations at t[s]:  30324.66
	Linear fluid (dielectric constant: 78.4, screening length: 8.12261 Bohr) occupying 0.717147 of unit cell:	Completed after 1 iterations at t[s]:  30362.54
	FillingsUpdate:  mu: -0.160200000  nElectrons: 225.109366  magneticMoment: [ Abs: 1.24593  Tot: -1.05570 ]
	SubspaceRotationAdjust: set factor to 0.307
ElecMinimize: Iter:   5  G: -352.471875785408315  |grad|_K:  1.811e-08  alpha:  9.467e-01  linmin:  4.308e-03  t[s]:  30413.83
	Linear fluid (dielectric constant: 78.4, screening length: 8.12261 Bohr) occupying 0.717147 of unit cell:	Completed after 0 iterations at t[s]:  30456.43
	Linear fluid (dielectric constant: 78.4, screening length: 8.12261 Bohr) occupying 0.717147 of unit cell:	Completed after 0 iterations at t[s]:  30492.09
	FillingsUpdate:  mu: -0.160200000  nElectrons: 225.109340  magneticMoment: [ Abs: 1.24588  Tot: -1.05568 ]
	SubspaceRotationAdjust: set factor to 0.408
ElecMinimize: Iter:   6  G: -352.471875808314962  |grad|_K:  1.197e-08  alpha:  5.887e-01  linmin: -7.201e-04  t[s]:  30543.33
ElecMinimize: Converged (|Delta G|<1.000000e-07 for 2 iters).
Setting wave functions to eigenvectors of Hamiltonian
Converging empty states (this may take a while): |deigs|: 1.920e-09

Computing DFT-D3 correction:
# coordination-number C 3.300 3.321 3.333 3.331 3.312 3.290 3.318 3.517 3.329 3.312 3.303 3.334 3.301 3.299 3.323 3.656 3.263 3.300 3.317 3.332 3.326 3.303 3.300 3.327 3.334 3.318 3.300 3.268 3.517 3.323 3.301 3.306 3.315 3.300 3.312 3.326 3.644 3.328 3.288 3.311 3.330 3.332 3.322 3.301 2.007
# coordination-number N 3.168 3.176 3.184 3.181
# coordination-number Ti 6.403
# coordination-number O 1.022 1.991
# coordination-number H 0.992 0.993
# diagonal-C6 C 24.28 24.07 23.94 23.97 24.17 24.37 24.10 21.39 23.99 24.16 24.26 23.93 24.27 24.29 24.05 19.68 24.61 24.28 24.11 23.96 24.02 24.25 24.28 24.01 23.93 24.10 24.29 24.57 21.39 24.05 24.27 24.22 24.13 24.28 24.17 24.02 19.79 24.00 24.40 24.17 23.98 23.95 24.06 24.28 29.48
# diagonal-C6 N 15.60 15.60 15.60 15.60
# diagonal-C6 Ti 321.59
# diagonal-C6 O 12.79 10.41
# diagonal-C6 H 3.09 3.09
EvdW_6 =   -0.043016
EvdW_8 =   -0.033251

# Ionic positions in cartesian coordinates:
ion C  -0.000899551196668   0.191082957129246  43.293925024986713 1
ion C  21.042407979550585   4.140534512672831  43.283797645068212 1
ion C  18.696670234281811   8.144024645947697  43.161865282966701 1
ion C  -7.047982284901383  12.145618812431298  43.146932570144195 1
ion C  -9.372287560939514  16.163865724023257  43.225911339459351 1
ion C   4.681403728450280   0.295477111880246   0.061526197332363 1
ion C   2.293706351363674   4.317864392452930   0.201479884154006 1
ion C  -0.123487550575176   8.125247686096976   0.167743967644444 1
ion C  -2.434477109238086  12.132238117341780  43.263800428799733 1
ion C  -4.726699606047527  16.165394713264636  43.249468129205439 1
ion C   9.373815124810577   0.177454355836368  43.276574613781136 1
ion C   7.081672939265783   4.283894078084351   0.132746185960241 1
ion C  -0.030101374301339  16.053775351758272   0.105124873258182 1
ion C   2.340324862014391  20.022663358027216  43.309650348345173 1
ion C  11.751518936188170   4.126621445679229  43.249022423050754 1
ion C   9.461850018205144   8.118618844842851   0.078422904078772 1
ion C   4.668929685473909  15.923374275702979   0.186618812074001 1
ion C   6.993210926994843  20.031348098400311  43.298821916138095 1
ion C  16.396180576747742   4.112181038484023  43.216317570314793 1
ion C  14.088079910258530   8.138209349209120  43.158846754002710 1
ion C  11.775116019729499  12.144158018850394  43.209061790929987 1
ion C   9.377044832670128  16.084594397981643   0.023902397266287 1
ion C  -0.013803211899155   2.880354156502727   0.079818584939847 1
ion C  -2.422229656668542   6.796907548901107  43.257678256473511 1
ion C  -4.743356441007270  10.796172328344001  43.158256854792178 1
ion C  -7.048997851561118  14.824875300365081  43.200263728731848 1
ion C  -9.375268820612430  18.853563033885479  43.282142973491091 1
ion C   4.680025148799277   3.013197853117242   0.154487587835391 1
ion C  -0.131717948319688  10.813061046874740   0.198596392707628 1
ion C  -2.404861438291578  14.805123002079101  43.294094359203129 1
ion C  -4.724022618956119  18.852675000110754  43.283434706168435 1
ion C   9.386243815071788   2.860281208956466   0.017600728660025 1
ion C   2.276424874178932  14.613886391357877   0.254542926041785 1
ion C  -0.017852101368907  18.741690427395753  43.306791766008182 1
ion C  14.075647528867938   2.769059679821984  43.250247748509373 1
ion C  11.777896141402216   6.801448528459911  43.232212606196029 1
ion C   9.462024722841129  10.826300370339004   0.049794583229149 1
ion C   7.073955230226936  14.652837485913272   0.123559572002932 1
ion C   4.667161893630807  18.641810284158137   0.091827832119302 1
ion C  18.723679257049493   2.777540412265270  43.257022423529442 1
ion C  16.394480503549779   6.790167626381106  43.155517775650189 1
ion C  14.087204536224638  10.811016320738993  43.152335447398166 1
ion C  11.744824322137564  14.820226187941252  43.227817654463834 1
ion C   9.361549949965964  18.769619335037145  43.286924979933936 1
ion C   3.282758482437390   7.662076414416862   5.121426087098131 1
ion N   2.145228108107851  12.014743946469135   0.468119772889310 1
ion N   7.187936114505255  12.061125951171391   0.188017265807812 1
ion N   2.175256277140333   6.930660615267710   0.394361806201660 1
ion N   7.190910757148225   6.870055531684674   0.277461616114376 1
ion Ti   4.829122902529241   9.461528854710904   1.849921374646781 1
ion O   2.208849925494525   6.672396149286501   6.736699373633116 1
ion O   7.245553126861404   3.079216111530519   5.766716541232394 1
ion H   8.469362550733095   3.466672196358807   7.106971160090323 1
ion H   6.108152830975635   1.845000414059930   6.557431455241034 1

# Forces in Cartesian coordinates:
force C   0.000080767458967   0.000039245209060  -0.000069920409910 1
force C   0.000058036631401   0.000083294671468   0.000061389667110 1
force C   0.000067870057279   0.000003843974024   0.000116687924778 1
force C   0.000042997867781   0.000137797952427  -0.000006564567536 1
force C   0.000108321439771   0.000061880710616  -0.000042065793007 1
force C   0.000042112891982  -0.000055657880943   0.000127648062866 1
force C   0.000084395107429   0.000003897572829  -0.000044713702240 1
force C   0.000054520949789   0.000063003032067  -0.000114539766615 1
force C   0.000033176539566   0.000161491734535   0.000110926357503 1
force C   0.000086078752413   0.000161136215372   0.000039510961774 1
force C   0.000044299609886  -0.000024790881803  -0.000052186520341 1
force C  -0.000042650273861  -0.000036625185930   0.000029453058129 1
force C   0.000075499272477   0.000048752744653  -0.000032785723386 1
force C   0.000079855740961   0.000003025548379  -0.000077487165862 1
force C  -0.000008267472426  -0.000059907524163  -0.000014907421288 1
force C  -0.000126664961118  -0.000048739226154   0.000042085118084 1
force C  -0.000021320215109  -0.000067798777779   0.000034835448251 1
force C   0.000006171435273  -0.000005279350404   0.000047846503990 1
force C   0.000051900307525  -0.000101627521458   0.000001365965226 1
force C  -0.000045744741119  -0.000041092764783  -0.000046782157727 1
force C  -0.000011700125863   0.000038476002665  -0.000008004373347 1
force C  -0.000009181217310  -0.000027483502772  -0.000122876082423 1
force C  -0.000044908512135  -0.000055381314533  -0.000017706885733 1
force C  -0.000122938453678   0.000034208855399   0.000027458704489 1
force C  -0.000087883546221   0.000054055771560   0.000215001602746 1
force C  -0.000021348639430  -0.000035922865425  -0.000079449956462 1
force C  -0.000023327371601  -0.000096682033193   0.000056437194281 1
force C   0.000000839469007  -0.000076227058856   0.000034522778291 1
force C  -0.000060107917259  -0.000035345507771  -0.000135021254892 1
force C  -0.000009636528719  -0.000072034344424   0.000089770413640 1
force C   0.000043342199235  -0.000035541197442   0.000039998881050 1
force C   0.000155767591633   0.000136870013772  -0.000038796106327 1
force C   0.000043133262493  -0.000114566140248  -0.000005297451792 1
force C   0.000135816395179  -0.000011170630412  -0.000110559761333 1
force C   0.000186728145139   0.000167713780649  -0.000045204006891 1
force C   0.000065429509221   0.000080129586805  -0.000037630639787 1
force C  -0.000088895214907  -0.000065860773233  -0.000000531779080 1
force C   0.000019828436100  -0.000103394248780  -0.000046794315457 1
force C   0.000093953527124   0.000045605096528   0.000047910986066 1
force C  -0.000008289384191  -0.000005484917229   0.000073593787931 1
force C  -0.000039936670927  -0.000037832740775  -0.000017157403269 1
force C  -0.000043279197084   0.000007442615877  -0.000059415347099 1
force C   0.000010438556279   0.000053529370351  -0.000029952435975 1
force C   0.000006219369343   0.000007118678919  -0.000126155500247 1
force C  -0.000145319624119   0.000079338030846  -0.000153823337452 1
force N  -0.000221377104195   0.000006294598314  -0.000109721457611 1
force N  -0.000042039014585  -0.000054882846854   0.000048161249759 1
force N  -0.000179666670207  -0.000007209025300  -0.000026519779238 1
force N   0.000099099228901   0.000047310427635   0.000199073498316 1
force Ti  -0.000252462222890  -0.000074371118123   0.000306601507728 1
force O   0.000067941556744  -0.000077722440490  -0.000190230869403 1
force O   0.000060236657614  -0.000008979026797  -0.000025287564520 1
force H   0.000026256718631  -0.000029674811496  -0.000071933767247 1
force H   0.000148041484314   0.000050283476517  -0.000027471267952 1

# Energy components:
   A_diel =        0.0150985683112123
   Eewald =     1660.0865351849424769
       EH =     1962.2245772818378100
     Eloc =    -4155.1387271195890207
      Enl =       52.5781797834877409
     EvdW =       -0.0762672017234659
      Exc =     -109.1753204310303573
 Exc_core =        3.3095553748889435
       KE =      197.6323342169444857
  MuShift =        0.0098746211557316
-------------------------------------
     Etot =     -388.5341597207743689
       TS =        0.0002323966500365
-------------------------------------
        F =     -388.5343921174244315
      muN =      -36.0625163091094976
-------------------------------------
        G =     -352.4718758083149623


Dumping 'jdft.fillings' ... done
Dumping 'jdft.wfns' ... done
Dumping 'jdft.fluidState' ... done
Dumping 'jdft.ionpos' ... done
Dumping 'jdft.lattice' ... done
Dumping 'jdft.eigenvals' ... done
Dumping 'jdft.eigStats' ... 
	eMin: -2.288610 at state 9 ( [ +0.000000 +0.000000 +0.000000 ] spin -1 )
	HOMO: -0.167510 at state 4 ( [ +0.333333 +0.333333 +0.000000 ] spin 1 )
	mu  : -0.160200
	LUMO: -0.159669 at state 17 ( [ -0.333333 -0.333333 +0.000000 ] spin -1 )
	eMax: +0.015654 at state 8 ( [ -0.333333 -0.333333 +0.000000 ] spin 1 )
	HOMO-LUMO gap: +0.007841
	Optical gap  : +0.008019 at state 17 ( [ -0.333333 -0.333333 +0.000000 ] spin -1 )
Dumping 'jdft.Ecomponents' ... done
IonicMinimize: Iter:  18  G: -352.471875808314962  |grad|_K:  8.401e-05  alpha:  1.000e+00  linmin: -1.034e-01  t[s]:  30664.47
IonicMinimize: Converged (|grad|_K<1.000000e-04).

#--- Lowdin population analysis ---
# oxidation-state C +0.050 +0.058 +0.047 +0.055 +0.045 +0.052 +0.165 +0.141 +0.036 +0.045 +0.052 +0.194 +0.038 +0.052 +0.064 +0.132 +0.007 +0.053 +0.046 +0.048 +0.037 +0.037 +0.036 +0.036 +0.049 +0.048 +0.054 +0.018 +0.152 +0.063 +0.055 +0.047 +0.174 +0.050 +0.046 +0.038 +0.140 +0.178 +0.052 +0.047 +0.055 +0.050 +0.064 +0.050 +0.141
# magnetic-moments C -0.000 -0.008 -0.001 -0.002 -0.001 -0.003 -0.012 -0.008 -0.001 -0.000 -0.003 -0.011 -0.000 -0.002 -0.005 -0.006 +0.006 -0.002 -0.001 +0.001 -0.003 -0.004 +0.001 -0.001 -0.002 +0.000 +0.001 +0.010 -0.008 -0.006 +0.001 -0.002 -0.007 +0.001 +0.001 -0.001 +0.001 -0.004 -0.002 +0.001 -0.000 +0.002 -0.001 -0.001 -0.161
# oxidation-state N -0.298 -0.310 -0.269 -0.282
# magnetic-moments N +0.011 +0.009 +0.023 +0.018
# oxidation-state Ti +1.413
# magnetic-moments Ti -0.755
# oxidation-state O -0.104 -0.770
# magnetic-moments O -0.084 -0.001
# oxidation-state H +0.451 +0.445
# magnetic-moments H -0.000 +0.000


Dumping 'jdft.n_up' ... done
Dumping 'jdft.n_dn' ... done
Dumping 'jdft.tau_up' ... done
Dumping 'jdft.tau_dn' ... done
Dumping 'jdft.eigenvals' ... done
Dumping 'jdft.eigStats' ... 
	eMin: -2.288610 at state 9 ( [ +0.000000 +0.000000 +0.000000 ] spin -1 )
	HOMO: -0.167510 at state 4 ( [ +0.333333 +0.333333 +0.000000 ] spin 1 )
	mu  : -0.160200
	LUMO: -0.159669 at state 17 ( [ -0.333333 -0.333333 +0.000000 ] spin -1 )
	eMax: +0.015654 at state 8 ( [ -0.333333 -0.333333 +0.000000 ] spin 1 )
	HOMO-LUMO gap: +0.007841
	Optical gap  : +0.008019 at state 17 ( [ -0.333333 -0.333333 +0.000000 ] spin -1 )
Dumping 'jdft.kPts' ... done
Dumping 'jdft.dosUp' ... done.
Dumping 'jdft.dosDn' ... done.
End date and time: Tue Jul 26 16:30:31 2022  (Duration: 0-8:32:21.62)
Done!

PROFILER:             augmentDensityGrid     0.652161 +/-     0.809920 s, 2035 calls,   1327.147775 s total
PROFILER:         augmentDensityGridGrad     0.484789 +/-     0.621247 s, 1195 calls,    579.322563 s total
PROFILER:        augmentDensitySpherical     0.000452 +/-     0.000661 s, 2035 calls,      0.919632 s total
PROFILER:    augmentDensitySphericalGrad     0.000704 +/-     0.002374 s, 1445 calls,      1.016810 s total
PROFILER:                 augmentOverlap     1.435723 +/-     2.135072 s, 4510 calls,   6475.111057 s total
PROFILER:                     diagouterI    14.679883 +/-     0.254917 s,  410 calls,   6018.752218 s total
PROFILER:              EdensityAndVscloc     9.456629 +/-     2.509554 s,  407 calls,   3848.848006 s total
PROFILER:                     EnlAndGrad     0.001512 +/-     0.002313 s, 2390 calls,      3.613948 s total
PROFILER:            ExCorrCommunication     0.085475 +/-     0.079199 s, 2675 calls,    228.645367 s total
PROFILER:               ExCorrFunctional     0.021117 +/-     0.004489 s,  471 calls,      9.946272 s total
PROFILER:                    ExCorrTotal     0.751847 +/-     0.205381 s,  471 calls,    354.120042 s total
PROFILER:                   Idag_DiagV_I    28.233769 +/-     4.039567 s,  268 calls,   7566.649972 s total
PROFILER:                    initWeights     1.873662 +/-     0.000000 s,    1 calls,      1.873662 s total
PROFILER:                    inv(matrix)     0.002529 +/-     0.003358 s,  403 calls,      1.019018 s total
PROFILER:            matrix::diagonalize     0.008406 +/-     0.005523 s,  674 calls,      5.665343 s total
PROFILER:                    matrix::set     0.000003 +/-     0.000005 s, 41732 calls,      0.131717 s total
PROFILER:            orthoMatrix(matrix)     0.002025 +/-     0.001092 s,  436 calls,      0.882695 s total
PROFILER:     RadialFunctionR::transform     0.012817 +/-     0.133944 s,  146 calls,      1.871245 s total
PROFILER:                    reduceKmesh     0.000000 +/-     0.000000 s,    1 calls,      0.000000 s total
PROFILER:   VanDerWaalsD3::energyAndGrad     0.032161 +/-     0.000789 s,   43 calls,      1.382909 s total
PROFILER:               WavefunctionDrag    26.979615 +/-     2.787030 s,   21 calls,    566.571925 s total
PROFILER:                            Y*M     0.653108 +/-     0.818869 s, 7644 calls,   4992.355671 s total
PROFILER:                          Y1^Y2     0.694448 +/-     0.864543 s, 5833 calls,   4050.714899 s total

MEMUSAGE:                   ColumnBundle     1.340214 GB
MEMUSAGE:        complexScalarFieldTilde     0.074158 GB
MEMUSAGE:                    IndexArrays     0.023178 GB
MEMUSAGE:                         matrix     0.020731 GB
MEMUSAGE:                           misc     0.051230 GB
MEMUSAGE:                    ScalarField     0.358429 GB
MEMUSAGE:               ScalarFieldTilde     0.262436 GB
MEMUSAGE:                          Total     1.620245 GB
