
*************** JDFTx 1.7.0 (git hash 5f12716a) ***************

Start date and time: Wed Nov  9 18:58:38 2022
Executable /home/nisi6161/jdftx_alpine/build/jdftx with command-line: -i in
Running on hosts (process indices):  c3cpu-c11-u7-3.rc.int.colorado.edu (0-17)
Divided in process groups (process indices):  0 (0)  1 (1)  2 (2)  3 (3)  4 (4)  5 (5)  6 (6)  7 (7)  8 (8)  9 (9)  10 (10)  11 (11)  12 (12)  13 (13)  14 (14)  15 (15)  16 (16)  17 (17)
Resource initialization completed at t[s]:      0.01
Run totals: 18 processes, 48 threads, 0 GPUs


Input parsed successfully to the following command list (including defaults):

basis kpoint-dependent
converge-empty-states yes
coords-type Cartesian
core-overlap-check none
coulomb-interaction Periodic
davidson-band-ratio 1.1
density-of-states Etol 1.000000e-06 Esigma 1.000000e-03 \
		Complete \
	Total \
	OrthoOrbital C 1   s \
	OrthoOrbital C 1   p \
	OrthoOrbital C 1   px \
	OrthoOrbital C 1   py \
	OrthoOrbital C 1   pz \
	OrthoOrbital C 2   s \
	OrthoOrbital C 2   p \
	OrthoOrbital C 2   px \
	OrthoOrbital C 2   py \
	OrthoOrbital C 2   pz \
	OrthoOrbital C 3   s \
	OrthoOrbital C 3   p \
	OrthoOrbital C 3   px \
	OrthoOrbital C 3   py \
	OrthoOrbital C 3   pz \
	OrthoOrbital C 4   s \
	OrthoOrbital C 4   p \
	OrthoOrbital C 4   px \
	OrthoOrbital C 4   py \
	OrthoOrbital C 4   pz \
	OrthoOrbital C 5   s \
	OrthoOrbital C 5   p \
	OrthoOrbital C 5   px \
	OrthoOrbital C 5   py \
	OrthoOrbital C 5   pz \
	OrthoOrbital C 6   s \
	OrthoOrbital C 6   p \
	OrthoOrbital C 6   px \
	OrthoOrbital C 6   py \
	OrthoOrbital C 6   pz \
	OrthoOrbital C 7   s \
	OrthoOrbital C 7   p \
	OrthoOrbital C 7   px \
	OrthoOrbital C 7   py \
	OrthoOrbital C 7   pz \
	OrthoOrbital C 8   s \
	OrthoOrbital C 8   p \
	OrthoOrbital C 8   px \
	OrthoOrbital C 8   py \
	OrthoOrbital C 8   pz \
	OrthoOrbital C 9   s \
	OrthoOrbital C 9   p \
	OrthoOrbital C 9   px \
	OrthoOrbital C 9   py \
	OrthoOrbital C 9   pz \
	OrthoOrbital C 10   s \
	OrthoOrbital C 10   p \
	OrthoOrbital C 10   px \
	OrthoOrbital C 10   py \
	OrthoOrbital C 10   pz \
	OrthoOrbital C 11   s \
	OrthoOrbital C 11   p \
	OrthoOrbital C 11   px \
	OrthoOrbital C 11   py \
	OrthoOrbital C 11   pz \
	OrthoOrbital C 12   s \
	OrthoOrbital C 12   p \
	OrthoOrbital C 12   px \
	OrthoOrbital C 12   py \
	OrthoOrbital C 12   pz \
	OrthoOrbital C 13   s \
	OrthoOrbital C 13   p \
	OrthoOrbital C 13   px \
	OrthoOrbital C 13   py \
	OrthoOrbital C 13   pz \
	OrthoOrbital C 14   s \
	OrthoOrbital C 14   p \
	OrthoOrbital C 14   px \
	OrthoOrbital C 14   py \
	OrthoOrbital C 14   pz \
	OrthoOrbital C 15   s \
	OrthoOrbital C 15   p \
	OrthoOrbital C 15   px \
	OrthoOrbital C 15   py \
	OrthoOrbital C 15   pz \
	OrthoOrbital C 16   s \
	OrthoOrbital C 16   p \
	OrthoOrbital C 16   px \
	OrthoOrbital C 16   py \
	OrthoOrbital C 16   pz \
	OrthoOrbital C 17   s \
	OrthoOrbital C 17   p \
	OrthoOrbital C 17   px \
	OrthoOrbital C 17   py \
	OrthoOrbital C 17   pz \
	OrthoOrbital C 18   s \
	OrthoOrbital C 18   p \
	OrthoOrbital C 18   px \
	OrthoOrbital C 18   py \
	OrthoOrbital C 18   pz \
	OrthoOrbital C 19   s \
	OrthoOrbital C 19   p \
	OrthoOrbital C 19   px \
	OrthoOrbital C 19   py \
	OrthoOrbital C 19   pz \
	OrthoOrbital C 20   s \
	OrthoOrbital C 20   p \
	OrthoOrbital C 20   px \
	OrthoOrbital C 20   py \
	OrthoOrbital C 20   pz \
	OrthoOrbital C 21   s \
	OrthoOrbital C 21   p \
	OrthoOrbital C 21   px \
	OrthoOrbital C 21   py \
	OrthoOrbital C 21   pz \
	OrthoOrbital C 22   s \
	OrthoOrbital C 22   p \
	OrthoOrbital C 22   px \
	OrthoOrbital C 22   py \
	OrthoOrbital C 22   pz \
	OrthoOrbital C 23   s \
	OrthoOrbital C 23   p \
	OrthoOrbital C 23   px \
	OrthoOrbital C 23   py \
	OrthoOrbital C 23   pz \
	OrthoOrbital C 24   s \
	OrthoOrbital C 24   p \
	OrthoOrbital C 24   px \
	OrthoOrbital C 24   py \
	OrthoOrbital C 24   pz \
	OrthoOrbital C 25   s \
	OrthoOrbital C 25   p \
	OrthoOrbital C 25   px \
	OrthoOrbital C 25   py \
	OrthoOrbital C 25   pz \
	OrthoOrbital C 26   s \
	OrthoOrbital C 26   p \
	OrthoOrbital C 26   px \
	OrthoOrbital C 26   py \
	OrthoOrbital C 26   pz \
	OrthoOrbital C 27   s \
	OrthoOrbital C 27   p \
	OrthoOrbital C 27   px \
	OrthoOrbital C 27   py \
	OrthoOrbital C 27   pz \
	OrthoOrbital C 28   s \
	OrthoOrbital C 28   p \
	OrthoOrbital C 28   px \
	OrthoOrbital C 28   py \
	OrthoOrbital C 28   pz \
	OrthoOrbital C 29   s \
	OrthoOrbital C 29   p \
	OrthoOrbital C 29   px \
	OrthoOrbital C 29   py \
	OrthoOrbital C 29   pz \
	OrthoOrbital C 30   s \
	OrthoOrbital C 30   p \
	OrthoOrbital C 30   px \
	OrthoOrbital C 30   py \
	OrthoOrbital C 30   pz \
	OrthoOrbital C 31   s \
	OrthoOrbital C 31   p \
	OrthoOrbital C 31   px \
	OrthoOrbital C 31   py \
	OrthoOrbital C 31   pz \
	OrthoOrbital C 32   s \
	OrthoOrbital C 32   p \
	OrthoOrbital C 32   px \
	OrthoOrbital C 32   py \
	OrthoOrbital C 32   pz \
	OrthoOrbital C 33   s \
	OrthoOrbital C 33   p \
	OrthoOrbital C 33   px \
	OrthoOrbital C 33   py \
	OrthoOrbital C 33   pz \
	OrthoOrbital C 34   s \
	OrthoOrbital C 34   p \
	OrthoOrbital C 34   px \
	OrthoOrbital C 34   py \
	OrthoOrbital C 34   pz \
	OrthoOrbital C 35   s \
	OrthoOrbital C 35   p \
	OrthoOrbital C 35   px \
	OrthoOrbital C 35   py \
	OrthoOrbital C 35   pz \
	OrthoOrbital C 36   s \
	OrthoOrbital C 36   p \
	OrthoOrbital C 36   px \
	OrthoOrbital C 36   py \
	OrthoOrbital C 36   pz \
	OrthoOrbital C 37   s \
	OrthoOrbital C 37   p \
	OrthoOrbital C 37   px \
	OrthoOrbital C 37   py \
	OrthoOrbital C 37   pz \
	OrthoOrbital C 38   s \
	OrthoOrbital C 38   p \
	OrthoOrbital C 38   px \
	OrthoOrbital C 38   py \
	OrthoOrbital C 38   pz \
	OrthoOrbital C 39   s \
	OrthoOrbital C 39   p \
	OrthoOrbital C 39   px \
	OrthoOrbital C 39   py \
	OrthoOrbital C 39   pz \
	OrthoOrbital C 40   s \
	OrthoOrbital C 40   p \
	OrthoOrbital C 40   px \
	OrthoOrbital C 40   py \
	OrthoOrbital C 40   pz \
	OrthoOrbital C 41   s \
	OrthoOrbital C 41   p \
	OrthoOrbital C 41   px \
	OrthoOrbital C 41   py \
	OrthoOrbital C 41   pz \
	OrthoOrbital C 42   s \
	OrthoOrbital C 42   p \
	OrthoOrbital C 42   px \
	OrthoOrbital C 42   py \
	OrthoOrbital C 42   pz \
	OrthoOrbital C 43   s \
	OrthoOrbital C 43   p \
	OrthoOrbital C 43   px \
	OrthoOrbital C 43   py \
	OrthoOrbital C 43   pz \
	OrthoOrbital C 44   s \
	OrthoOrbital C 44   p \
	OrthoOrbital C 44   px \
	OrthoOrbital C 44   py \
	OrthoOrbital C 44   pz \
	OrthoOrbital C 45   s \
	OrthoOrbital C 45   p \
	OrthoOrbital C 45   px \
	OrthoOrbital C 45   py \
	OrthoOrbital C 45   pz \
	OrthoOrbital N 1   s \
	OrthoOrbital N 1   p \
	OrthoOrbital N 1   px \
	OrthoOrbital N 1   py \
	OrthoOrbital N 1   pz \
	OrthoOrbital N 2   s \
	OrthoOrbital N 2   p \
	OrthoOrbital N 2   px \
	OrthoOrbital N 2   py \
	OrthoOrbital N 2   pz \
	OrthoOrbital N 3   s \
	OrthoOrbital N 3   p \
	OrthoOrbital N 3   px \
	OrthoOrbital N 3   py \
	OrthoOrbital N 3   pz \
	OrthoOrbital N 4   s \
	OrthoOrbital N 4   p \
	OrthoOrbital N 4   px \
	OrthoOrbital N 4   py \
	OrthoOrbital N 4   pz \
	OrthoOrbital Ti 1   s \
	OrthoOrbital Ti 1   p \
	OrthoOrbital Ti 1   px \
	OrthoOrbital Ti 1   py \
	OrthoOrbital Ti 1   pz \
	OrthoOrbital Ti 1   d \
	OrthoOrbital Ti 1   dxy \
	OrthoOrbital Ti 1   dyz \
	OrthoOrbital Ti 1   dz2 \
	OrthoOrbital Ti 1   dxz \
	OrthoOrbital Ti 1   dx2-y2 \
	OrthoOrbital O 1   s \
	OrthoOrbital O 1   p \
	OrthoOrbital O 1   px \
	OrthoOrbital O 1   py \
	OrthoOrbital O 1   pz \
	OrthoOrbital O 2   s \
	OrthoOrbital O 2   p \
	OrthoOrbital O 2   px \
	OrthoOrbital O 2   py \
	OrthoOrbital O 2   pz
dump End ElecDensity KEdensity BandEigs EigStats RhoAtom DOS Kpoints
dump Ionic State IonicPositions Lattice EigStats Ecomponents
dump 
dump 
dump 
dump 
dump 
dump 
dump 
dump 
dump-name jdft.$VAR
elec-cutoff 20
elec-eigen-algo Davidson
elec-ex-corr gga-PBE
elec-initial-magnetization 0.000000 no
elec-n-bands 135
elec-smearing Fermi 0.001
electronic-minimize  \
	dirUpdateScheme      FletcherReeves \
	linminMethod         DirUpdateRecommended \
	nIterations          100 \
	history              15 \
	knormThreshold       0 \
	energyDiffThreshold  1e-07 \
	nEnergyDiff          2 \
	alphaTstart          1 \
	alphaTmin            1e-10 \
	updateTestStepSize   yes \
	alphaTreduceFactor   0.1 \
	alphaTincreaseFactor 3 \
	nAlphaAdjustMax      3 \
	wolfeEnergy          0.0001 \
	wolfeGradient        0.9 \
	fdTest               no
exchange-regularization WignerSeitzTruncated
fluid LinearPCM 298.000000 1.013250
fluid-anion F- 0.5 MeanFieldLJ \
	epsBulk 1 \
	pMol 0 \
	epsInf 1 \
	Pvap 0 \
	sigmaBulk 0 \
	Rvdw 2.24877 \
	Res 0 \
	tauNuc 343133
fluid-cation Na+ 0.5 MeanFieldLJ \
	epsBulk 1 \
	pMol 0 \
	epsInf 1 \
	Pvap 0 \
	sigmaBulk 0 \
	Rvdw 2.19208 \
	Res 0 \
	tauNuc 343133
fluid-ex-corr lda-TF lda-PZ
fluid-gummel-loop 10 1.000000e-05
fluid-minimize  \
	dirUpdateScheme      PolakRibiere \
	linminMethod         DirUpdateRecommended \
	nIterations          400 \
	history              15 \
	knormThreshold       1e-11 \
	energyDiffThreshold  0 \
	nEnergyDiff          2 \
	alphaTstart          1 \
	alphaTmin            1e-10 \
	updateTestStepSize   yes \
	alphaTreduceFactor   0.1 \
	alphaTincreaseFactor 3 \
	nAlphaAdjustMax      6 \
	wolfeEnergy          0.0001 \
	wolfeGradient        0.9 \
	fdTest               no
fluid-solvent H2O 55.338 ScalarEOS \
	epsBulk 78.4 \
	pMol 0.92466 \
	epsInf 1.77 \
	Pvap 1.06736e-10 \
	sigmaBulk 4.62e-05 \
	Rvdw 2.61727 \
	Res 1.42 \
	tauNuc 343133 \
	poleEl 15 7 1
forces-output-coords Positions
ion C  -0.002700000000000   0.052169000000000   0.032399000000000 0
ion C  21.041816000000004   4.010776000000001   0.020244000000000 0
ion C  18.698146999999999   8.014610000000001  43.194586000000008 0
ion C  -7.043596000000002  12.018356000000002  43.181479000000010 0
ion C  -9.370433000000000  16.031041000000002  43.249824000000004 0
ion C   4.683653000000000   0.158395000000000   0.071027000000000 0
ion C   2.286451000000000   4.169569000000001   0.146596000000000 0
ion C  -0.120053000000000   7.993199000000001   0.088286000000000 0
ion C  -2.433507000000001  12.005096000000002  43.247272000000009 0
ion C  -4.723526000000001  16.034628000000005  43.253934000000008 0
ion C   9.371490000000000   0.057192000000000   0.028419000000000 0
ion C   7.077166000000000   4.168918000000000   0.124838000000000 0
ion C  -0.030772000000001  15.939415000000002   0.046025000000000 0
ion C   2.343947999999999  19.899229000000002   0.034302000000000 0
ion C  11.757002000000004   4.002410000000001   0.002293000000000 0
ion C   9.476383000000000   7.998392000000001   0.046457000000000 0
ion C   4.671450000000000  15.798342000000002   0.129596000000000 0
ion C   6.993819999999999  19.903318000000002   0.033437000000000 0
ion C  16.399343999999999   3.984947000000001  43.230402000000005 0
ion C  14.094574000000001   8.010417000000002  43.182864000000009 0
ion C  11.782930000000000  12.015651999999999  43.226942000000008 0
ion C   9.373870999999999  15.948271999999999   0.032702000000000 0
ion C  -0.017557000000000   2.734072000000000   0.054892000000000 0
ion C  -2.426145000000000   6.663420000000000   0.002379000000000 0
ion C  -4.741538000000000  10.667614000000002  43.190044000000007 0
ion C  -7.046004000000002  14.693963000000002  43.223784000000009 0
ion C  -9.373259000000001  18.717561000000003   0.036681000000000 0
ion C   4.681762000000000   2.878952000000000   0.140713000000000 0
ion C  -0.125024000000000  10.680496000000002   0.079894000000000 0
ion C  -2.404059999999999  14.675821000000001   0.008997000000000 0
ion C  -4.724090000000000  18.720732000000005   0.035557000000000 0
ion C   9.382695000000000   2.738197000000000   0.037936000000000 0
ion C   2.275076999999998  14.505162000000004   0.132840000000000 0
ion C  -0.018301000000001  18.620620000000002   0.029328000000000 0
ion C  14.076433000000002   2.643862000000000  43.253977000000006 0
ion C  11.785277000000001   6.673014000000002  43.233128000000008 0
ion C   9.476638000000001  10.686731000000002   0.041829000000000 0
ion C   7.070028000000001  14.511856000000003   0.114240000000000 0
ion C   4.669817000000000  18.519139000000003   0.064668000000000 0
ion C  18.724523000000001   2.647910000000000   0.003158000000000 0
ion C  16.397406000000004   6.659916000000002  43.187535000000004 0
ion C  14.092874000000002  10.681916000000003  43.179966000000007 0
ion C  11.748618000000000  14.686707000000000  43.251771000000005 0
ion C   9.358428999999999  18.629416000000003   0.026300000000000 0
ion C   4.755700999999999   8.434086000000002   5.457476000000001 1
ion N   2.156148999999998  11.913155000000001   0.217709000000000 0
ion N   7.193935000000000  11.919417000000003   0.178173000000000 0
ion N   2.169653000000001   6.766543000000000   0.241500000000000 0
ion N   7.191229000000000   6.763894000000001   0.197379000000000 0
ion Ti   4.702579000000001   9.338856000000002   1.670905000000000 0
ion O   4.681539000000000  10.918070000000002   5.093863000000001 1
ion O   4.801844000000000   7.370501000000002   7.549135000000001 1
ion-species /projects/musgravc/apps/jdftx-1.6.0/build/pseudopotentials/GBRV_v1.5/$ID_pbe_v1.uspp
ion-species /projects/musgravc/apps/jdftx-1.6.0/build/pseudopotentials/GBRV_v1.5/$ID_pbe_v1.2.uspp
ion-species /projects/musgravc/apps/jdftx-1.6.0/build/pseudopotentials/GBRV_v1.5/$ID_pbe_v1.4.uspp
ion-species /projects/musgravc/apps/jdftx-1.6.0/build/pseudopotentials/GBRV_v1.5/$ID_pbe_v1.5.uspp
ion-width Ecut
ionic-minimize  \
	dirUpdateScheme      L-BFGS \
	linminMethod         DirUpdateRecommended \
	nIterations          100 \
	history              15 \
	knormThreshold       0.0001 \
	energyDiffThreshold  1e-06 \
	nEnergyDiff          2 \
	alphaTstart          1 \
	alphaTmin            1e-10 \
	updateTestStepSize   yes \
	alphaTreduceFactor   0.1 \
	alphaTincreaseFactor 1 \
	nAlphaAdjustMax      1 \
	wolfeEnergy          0.0001 \
	wolfeGradient        0.9 \
	fdTest               no
kpoint   0.000000000000   0.000000000000   0.000000000000  1.00000000000000
kpoint-folding 3 3 1 
latt-move-scale 0 0 0
latt-scale 1 1 1 
lattice  \
	  23.436261999999999  -11.733459000000000    0.000000000000000  \
	   0.017994000000000   19.941849000000001    0.000000000000000  \
	   0.000000000000000    0.000000000000000   43.256312999999999 
lattice-minimize  \
	dirUpdateScheme      L-BFGS \
	linminMethod         DirUpdateRecommended \
	nIterations          0 \
	history              15 \
	knormThreshold       0 \
	energyDiffThreshold  1e-06 \
	nEnergyDiff          2 \
	alphaTstart          1 \
	alphaTmin            1e-10 \
	updateTestStepSize   yes \
	alphaTreduceFactor   0.1 \
	alphaTincreaseFactor 3 \
	nAlphaAdjustMax      3 \
	wolfeEnergy          0.0001 \
	wolfeGradient        0.9 \
	fdTest               no
lcao-params 30 1e-06 0.001
pcm-variant CANDLE
spintype z-spin
subspace-rotation-factor 1 yes
symmetries none
symmetry-threshold 0.0001
target-mu -0.1455 no

van-der-waals D3
vibrations \
	dr 0.01\
	centralDiff no\
	useConstraints yes\
	translationSym yes\
	rotationSym no\
	omegaMin 0.0002\
	T 298\
	omegaResolution 0.0001


Applied RMS atom displacement 0 bohrs to make symmetries exact.
Applied RMS atom displacement 0 bohrs to make symmetries exact.

---------- Initializing the Grid ----------
R = 
[      23.4363     -11.7335            0  ]
[     0.017994      19.9418            0  ]
[            0            0      43.2563  ]
unit cell volume = 20225.5
G =
[   0.267976   0.157673         -0  ]
[ -0.000241801   0.314933          0  ]
[          0         -0   0.145255  ]
Minimum fftbox size, Smin = [  96  96  176  ]
Chosen fftbox size, S = [  96  96  180  ]

---------- Exchange Correlation functional ----------
Initalized PBE GGA exchange.
Initalized PBE GGA correlation.

---------- Setting up pseudopotentials ----------
Width of ionic core gaussian charges (only for fluid interactions / plotting) set to 0.397384

Reading pseudopotential file '/projects/musgravc/apps/jdftx-1.6.0/build/pseudopotentials/GBRV_v1.5/c_pbe_v1.2.uspp':
  Title: C.  Created by USPP 7.3.6 on 3-2-2014
  Reference state energy: -5.406344.  4 valence electrons in orbitals:
    |200>  occupation: 2  eigenvalue: -0.504890
    |210>  occupation: 2  eigenvalue: -0.194356
  lMax: 1  lLocal: 2  QijEcut: 5
  4 projectors sampled on a log grid with 503 points:
    l: 0  eig: -0.504890  rCut: 1.3
    l: 0  eig: 0.000000  rCut: 1.3
    l: 1  eig: -0.194357  rCut: 1.3
    l: 1  eig: 0.000000  rCut: 1.3
  Partial core density with radius 1.1
  Transforming core density to a uniform radial grid of dG=0.02 with 1464 points.
  Transforming local potential to a uniform radial grid of dG=0.02 with 1464 points.
  Transforming nonlocal projectors to a uniform radial grid of dG=0.02 with 432 points.
  Transforming density augmentations to a uniform radial grid of dG=0.02 with 1464 points.
  Transforming atomic orbitals to a uniform radial grid of dG=0.02 with 432 points.
  Core radius for overlap checks: 1.30 bohrs.

Reading pseudopotential file '/projects/musgravc/apps/jdftx-1.6.0/build/pseudopotentials/GBRV_v1.5/n_pbe_v1.2.uspp':
  Title: N.  Created by USPP 7.3.6 on 3-2-2014
  Reference state energy: -9.763716.  5 valence electrons in orbitals:
    |200>  occupation: 2  eigenvalue: -0.681964
    |210>  occupation: 3  eigenvalue: -0.260726
  lMax: 1  lLocal: 2  QijEcut: 6
  4 projectors sampled on a log grid with 491 points:
    l: 0  eig: -0.681964  rCut: 1.15
    l: 0  eig: 0.000000  rCut: 1.15
    l: 1  eig: -0.260729  rCut: 1.2
    l: 1  eig: 0.500000  rCut: 1.2
  Partial core density with radius 0.8
  Transforming core density to a uniform radial grid of dG=0.02 with 1464 points.
  Transforming local potential to a uniform radial grid of dG=0.02 with 1464 points.
  Transforming nonlocal projectors to a uniform radial grid of dG=0.02 with 432 points.
  Transforming density augmentations to a uniform radial grid of dG=0.02 with 1464 points.
  Transforming atomic orbitals to a uniform radial grid of dG=0.02 with 432 points.
  Core radius for overlap checks: 1.20 bohrs.

Reading pseudopotential file '/projects/musgravc/apps/jdftx-1.6.0/build/pseudopotentials/GBRV_v1.5/ti_pbe_v1.4.uspp':
  Title: Ti.  Created by USPP 7.3.6 on 31-3-15
  Reference state energy: -59.020943.  12 valence electrons in orbitals:
    |300>  occupation: 2  eigenvalue: -2.777623
    |310>  occupation: 6  eigenvalue: -1.894596
    |400>  occupation: 2  eigenvalue: -0.438610
    |320>  occupation: 1  eigenvalue: -0.583119
  lMax: 2  lLocal: 3  QijEcut: 6
  6 projectors sampled on a log grid with 597 points:
    l: 0  eig: -2.777624  rCut: 1.8
    l: 0  eig: -0.438611  rCut: 1.8
    l: 1  eig: -1.894596  rCut: 1.8
    l: 1  eig: 0.500000  rCut: 1.8
    l: 2  eig: -0.583118  rCut: 1.8
    l: 2  eig: 0.150000  rCut: 1.8
  Partial core density with radius 0.8
  Transforming core density to a uniform radial grid of dG=0.02 with 1464 points.
  Transforming local potential to a uniform radial grid of dG=0.02 with 1464 points.
  Transforming nonlocal projectors to a uniform radial grid of dG=0.02 with 432 points.
  Transforming density augmentations to a uniform radial grid of dG=0.02 with 1464 points.
  Transforming atomic orbitals to a uniform radial grid of dG=0.02 with 432 points.
  Core radius for overlap checks: 1.80 bohrs.

Reading pseudopotential file '/projects/musgravc/apps/jdftx-1.6.0/build/pseudopotentials/GBRV_v1.5/o_pbe_v1.2.uspp':
  Title: O.  Created by USPP 7.3.6 on 3-2-2014
  Reference state energy: -15.894388.  6 valence electrons in orbitals:
    |200>  occupation: 2  eigenvalue: -0.878823
    |210>  occupation: 4  eigenvalue: -0.332131
  lMax: 2  lLocal: 2  QijEcut: 6
  5 projectors sampled on a log grid with 511 points:
    l: 0  eig: -0.878823  rCut: 1.25
    l: 0  eig: 0.000000  rCut: 1.25
    l: 1  eig: -0.332132  rCut: 1.25
    l: 1  eig: 0.000000  rCut: 1.25
    l: 2  eig: 1.000000  rCut: 1.25
  Partial core density with radius 0.7
  Transforming core density to a uniform radial grid of dG=0.02 with 1464 points.
  Transforming local potential to a uniform radial grid of dG=0.02 with 1464 points.
  Transforming nonlocal projectors to a uniform radial grid of dG=0.02 with 432 points.
  Transforming density augmentations to a uniform radial grid of dG=0.02 with 1464 points.
  Transforming atomic orbitals to a uniform radial grid of dG=0.02 with 432 points.
  Core radius for overlap checks: 1.25 bohrs.

Initialized 4 species with 52 total atoms.

Folded 1 k-points by 3x3x1 to 9 k-points.

---------- Setting up k-points, bands, fillings ----------
No reducable k-points. 
Computing the number of bands and number of electrons
Calculating initial fillings.
nElectrons: 224.000000   nBands: 135   nStates: 18

----- Setting up reduced wavefunction bases (one per k-point) -----
average nbasis = 86412.556 , ideal nbasis = 86404.907

----- Initializing Supercell corresponding to k-point mesh -----
Lattice vector linear combinations in supercell:
[   3   0   0  ]
[   0   3   0  ]
[   0   0   1  ]
Supercell lattice vectors:
[  70.3088  -35.2004  0  ]
[  0.053982  59.8255  0  ]
[  0  0  43.2563  ]

Initializing DFT-D3 calculator:
	Parameters set for gga-PBE functional
	s6:  1.000  s_r6:  1.217
	s8:  0.722  s_r8:  1.000
	Per-atom parameters loaded for:
	 C:  sqrtQ[a0]:  3.105  Rcov[a0]:  1.417  CN: [ 0.00 0.99 2.00 3.00 3.98 ]
	 N:  sqrtQ[a0]:  2.712  Rcov[a0]:  1.342  CN: [ 0.00 0.99 2.01 2.99 ]
	Ti:  sqrtQ[a0]:  6.288  Rcov[a0]:  2.305  CN: [ 0.00 1.83 3.87 ]
	 O:  sqrtQ[a0]:  2.594  Rcov[a0]:  1.191  CN: [ 0.00 0.99 1.99 ]

Initializing DFT-D2 calculator for fluid / solvation:
	 C:  C6:   30.35 Eh-a0^6  R0: 2.744 a0
	 N:  C6:   21.33 Eh-a0^6  R0: 2.640 a0
	Ti:  C6:  187.33 Eh-a0^6  R0: 2.952 a0
	 O:  C6:   12.14 Eh-a0^6  R0: 2.536 a0

---------- Setting up ewald sum ----------
Optimum gaussian width for ewald sums = 5.626124 bohr.
Real space sum over 567 unit cells with max indices [  4  4  3  ]
Reciprocal space sum over 7803 terms with max indices [  8  8  13  ]

Computing DFT-D3 correction:
# coordination-number C 3.301 3.322 3.335 3.333 3.313 3.290 3.325 3.588 3.329 3.314 3.301 3.328 3.303 3.301 3.323 3.608 3.267 3.301 3.320 3.335 3.329 3.303 3.302 3.328 3.335 3.320 3.301 3.268 3.585 3.323 3.301 3.303 3.325 3.301 3.313 3.329 3.606 3.327 3.289 3.313 3.332 3.335 3.323 3.301 2.996
# coordination-number N 3.178 3.179 3.177 3.179
# coordination-number Ti 7.481
# coordination-number O 1.998 1.034
# diagonal-C6 C 24.28 24.06 23.92 23.94 24.15 24.38 24.02 20.42 23.98 24.15 24.27 24.00 24.25 24.28 24.05 20.18 24.58 24.28 24.08 23.92 23.98 24.25 24.26 24.00 23.92 24.08 24.27 24.57 20.46 24.05 24.27 24.25 24.03 24.28 24.15 23.99 20.21 24.01 24.38 24.15 23.95 23.92 24.05 24.28 25.68
# diagonal-C6 N 15.60 15.60 15.60 15.60
# diagonal-C6 Ti 321.59
# diagonal-C6 O 10.41 12.78
EvdW_6 =   -0.039674
EvdW_8 =   -0.031871

---------- Allocating electronic variables ----------
Initializing wave functions:  linear combination of atomic orbitals
C pseudo-atom occupations:   s ( 2 )  p ( 2 )
N pseudo-atom occupations:   s ( 2 )  p ( 3 )
Ti pseudo-atom occupations:   s ( 2 0 )  p ( 6 )  d ( 4 )
O pseudo-atom occupations:   s ( 2 )  p ( 4 )
	FillingsUpdate:  mu: -0.145500000  nElectrons: 224.000000  magneticMoment: [ Abs: 0.00435  Tot: +0.00001 ]
LCAOMinimize: Iter:   0  G: -349.1899274646344793  |grad|_K:  4.296e-03  alpha:  1.000e+00
	FillingsUpdate:  mu: -0.145500000  nElectrons: 224.000000  magneticMoment: [ Abs: 0.00427  Tot: -0.00000 ]
LCAOMinimize: Iter:   1  G: -350.5715273734713833  |grad|_K:  1.462e-03  alpha:  1.360e-01  linmin: -1.405e-01  cgtest:  1.795e+00  t[s]:    283.27
LCAOMinimize: Encountered beta<0, resetting CG.
LCAOMinimize: 	Wrong curvature in test step, increasing alphaT to 4.081418e-01.
	FillingsUpdate:  mu: -0.145500000  nElectrons: 224.000000  magneticMoment: [ Abs: 0.00474  Tot: -0.00061 ]
LCAOMinimize: Iter:   2  G: -350.8919011559414116  |grad|_K:  1.988e-03  alpha: -2.096e-01  linmin:  3.387e-02  cgtest:  5.047e-01  t[s]:    394.42
LCAOMinimize: 	Bad step direction: g.d > 0.
LCAOMinimize: 	Undoing step.
LCAOMinimize: 	Step failed: resetting search direction.
	FillingsUpdate:  mu: -0.145500000  nElectrons: 224.000000  magneticMoment: [ Abs: 0.00474  Tot: -0.00061 ]
LCAOMinimize: Iter:   3  G: -350.8919011559414116  |grad|_K:  1.988e-03  alpha:  0.000e+00
	FillingsUpdate:  mu: -0.145500000  nElectrons: 224.000000  magneticMoment: [ Abs: 0.00483  Tot: -0.00071 ]
LCAOMinimize: Iter:   4  G: -350.9841435575226001  |grad|_K:  1.338e-03  alpha:  6.670e-02  linmin: -7.224e-02  cgtest: -3.374e-01  t[s]:    595.25
LCAOMinimize: 	Wrong curvature in test step, increasing alphaT to 2.000864e-01.
	FillingsUpdate:  mu: -0.145500000  nElectrons: 224.000000  magneticMoment: [ Abs: 0.00546  Tot: -0.00138 ]
LCAOMinimize: Iter:   5  G: -351.1579947061353550  |grad|_K:  1.361e-03  alpha: -2.878e-01  linmin: -7.219e-02  cgtest:  7.637e-01  t[s]:    706.88
	FillingsUpdate:  mu: -0.145500000  nElectrons: 224.000000  magneticMoment: [ Abs: 0.00640  Tot: -0.00235 ]
LCAOMinimize: Iter:   6  G: -351.2473918852447810  |grad|_K:  1.277e-03  alpha:  3.961e-02  linmin: -5.856e-02  cgtest:  7.043e-01  t[s]:    821.00
LCAOMinimize: 	Wrong curvature in test step, increasing alphaT to 1.188301e-01.
	FillingsUpdate:  mu: -0.145500000  nElectrons: 224.000000  magneticMoment: [ Abs: 0.00717  Tot: -0.00314 ]
LCAOMinimize: Iter:   7  G: -351.3209974508151276  |grad|_K:  1.204e-03  alpha: -4.536e-01  linmin: -1.971e-01  cgtest:  8.536e-01  t[s]:    932.99
	FillingsUpdate:  mu: -0.145500000  nElectrons: 224.000000  magneticMoment: [ Abs: 0.00789  Tot: -0.00388 ]
LCAOMinimize: Iter:   8  G: -351.3642619058500145  |grad|_K:  1.179e-03  alpha:  3.083e-02  linmin: -2.567e-01  cgtest:  9.244e-01  t[s]:   1046.95
LCAOMinimize: 	Wrong curvature in test step, increasing alphaT to 9.247776e-02.
	FillingsUpdate:  mu: -0.145500000  nElectrons: 224.000000  magneticMoment: [ Abs: 0.00881  Tot: -0.00483 ]
LCAOMinimize: Iter:   9  G: -351.4030155972118337  |grad|_K:  1.146e-03  alpha: -7.628e-01  linmin: -2.568e-01  cgtest:  9.365e-01  t[s]:   1158.71
	FillingsUpdate:  mu: -0.145500000  nElectrons: 224.000000  magneticMoment: [ Abs: 0.00976  Tot: -0.00581 ]
LCAOMinimize: Iter:  10  G: -351.4340765909061020  |grad|_K:  1.110e-03  alpha:  2.697e-02  linmin: -2.604e-01  cgtest:  9.471e-01  t[s]:   1272.64
LCAOMinimize: 	Wrong curvature in test step, increasing alphaT to 8.089665e-02.
	FillingsUpdate:  mu: -0.145500000  nElectrons: 224.000000  magneticMoment: [ Abs: 0.01085  Tot: -0.00692 ]
LCAOMinimize: Iter:  11  G: -351.4626299931012454  |grad|_K:  1.068e-03  alpha: -1.705e+00  linmin: -2.663e-01  cgtest:  9.496e-01  t[s]:   1384.43
	FillingsUpdate:  mu: -0.145500000  nElectrons: 224.000000  magneticMoment: [ Abs: 0.01204  Tot: -0.00813 ]
LCAOMinimize: Iter:  12  G: -351.4871892322784106  |grad|_K:  1.021e-03  alpha:  2.549e-02  linmin: -2.717e-01  cgtest:  9.550e-01  t[s]:   1498.68
LCAOMinimize: 	Predicted alpha/alphaT>3.000000, increasing alphaT to 7.647854e-02.
LCAOMinimize: 	Predicted alpha/alphaT>3.000000, increasing alphaT to 2.294356e-01.
LCAOMinimize: 	Step increased G by 5.564196e-01, reducing alpha to 3.408680e-02.
	FillingsUpdate:  mu: -0.145500000  nElectrons: 224.000000  magneticMoment: [ Abs: 0.01383  Tot: -0.00994 ]
LCAOMinimize: Iter:  13  G: -351.5166951948651786  |grad|_K:  9.497e-04  alpha:  3.409e-02  linmin: -2.807e-01  cgtest:  9.434e-01  t[s]:   1756.72
LCAOMinimize: Encountered beta<0, resetting CG.
LCAOMinimize: 	Predicted alpha/alphaT>3.000000, increasing alphaT to 1.022604e-01.
LCAOMinimize: 	Predicted alpha/alphaT>3.000000, increasing alphaT to 3.067812e-01.
	FillingsUpdate:  mu: -0.145500000  nElectrons: 224.000000  magneticMoment: [ Abs: 0.02063  Tot: -0.01686 ]
LCAOMinimize: Iter:  14  G: -351.6004584198036582  |grad|_K:  5.379e-04  alpha:  1.251e-01  linmin: -3.158e-01  cgtest:  7.986e-01  t[s]:   1929.23
LCAOMinimize: Encountered beta<0, resetting CG.
	FillingsUpdate:  mu: -0.145500000  nElectrons: 224.000000  magneticMoment: [ Abs: 0.04131  Tot: -0.03789 ]
LCAOMinimize: Iter:  15  G: -351.6198512105987675  |grad|_K:  4.095e-04  alpha:  2.424e-01  linmin:  2.385e-01  cgtest: -5.795e-01  t[s]:   2043.46
LCAOMinimize: 	Bad step direction: g.d > 0.
LCAOMinimize: 	Undoing step.
LCAOMinimize: 	Step failed: resetting search direction.
	FillingsUpdate:  mu: -0.145500000  nElectrons: 224.000000  magneticMoment: [ Abs: 0.04131  Tot: -0.03789 ]
LCAOMinimize: Iter:  16  G: -351.6198512105987675  |grad|_K:  4.095e-04  alpha:  0.000e+00
	FillingsUpdate:  mu: -0.145500000  nElectrons: 224.000000  magneticMoment: [ Abs: 0.06851  Tot: -0.06522 ]
LCAOMinimize: Iter:  17  G: -351.6284160032283239  |grad|_K:  7.262e-05  alpha:  1.323e-01  linmin:  4.888e-02  cgtest: -3.651e-01  t[s]:   2242.66
	FillingsUpdate:  mu: -0.145500000  nElectrons: 224.000000  magneticMoment: [ Abs: 0.12601  Tot: -0.12290 ]
LCAOMinimize: Iter:  18  G: -351.6287544705668893  |grad|_K:  6.683e-05  alpha:  1.578e-01  linmin: -3.766e-02  cgtest:  8.773e-01  t[s]:   2356.61
	FillingsUpdate:  mu: -0.145500000  nElectrons: 224.000000  magneticMoment: [ Abs: 0.24010  Tot: -0.23696 ]
LCAOMinimize: Iter:  19  G: -351.6291969042361529  |grad|_K:  7.535e-05  alpha:  1.914e-01  linmin: -3.775e-02  cgtest:  7.086e-01  t[s]:   2471.14
LCAOMinimize: 	Wrong curvature in test step, increasing alphaT to 5.743011e-01.
	FillingsUpdate:  mu: -0.145500000  nElectrons: 224.000000  magneticMoment: [ Abs: 0.41300  Tot: -0.40897 ]
LCAOMinimize: Iter:  20  G: -351.6303654592328485  |grad|_K:  7.646e-05  alpha: -5.232e+00  linmin: -7.670e-02  cgtest:  1.405e+00  t[s]:   2583.03
LCAOMinimize: Encountered beta<0, resetting CG.
	FillingsUpdate:  mu: -0.145500000  nElectrons: 224.000000  magneticMoment: [ Abs: 0.51714  Tot: -0.50906 ]
LCAOMinimize: Iter:  21  G: -351.6310936246400161  |grad|_K:  5.011e-05  alpha:  3.128e-01  linmin:  1.702e-03  cgtest:  1.290e+00  t[s]:   2697.13
LCAOMinimize: Encountered beta<0, resetting CG.
	FillingsUpdate:  mu: -0.145500000  nElectrons: 224.000000  magneticMoment: [ Abs: 0.50489  Tot: -0.49478 ]
LCAOMinimize: Iter:  22  G: -351.6311616547990866  |grad|_K:  3.274e-05  alpha:  1.159e-01  linmin: -1.307e-04  cgtest:  1.605e-02  t[s]:   2811.34
	FillingsUpdate:  mu: -0.145500000  nElectrons: 224.000000  magneticMoment: [ Abs: 0.52517  Tot: -0.51138 ]
LCAOMinimize: Iter:  23  G: -351.6312348579195941  |grad|_K:  2.206e-05  alpha:  1.527e-01  linmin: -5.404e-02  cgtest:  5.485e-01  t[s]:   2925.73
	FillingsUpdate:  mu: -0.145500000  nElectrons: 224.000000  magneticMoment: [ Abs: 0.53963  Tot: -0.52194 ]
LCAOMinimize: Iter:  24  G: -351.6312928051777931  |grad|_K:  1.693e-05  alpha:  2.369e-01  linmin: -7.510e-02  cgtest:  4.834e-01  t[s]:   3039.85
	FillingsUpdate:  mu: -0.145500000  nElectrons: 224.000000  magneticMoment: [ Abs: 0.54177  Tot: -0.52107 ]
LCAOMinimize: Iter:  25  G: -351.6313145480269782  |grad|_K:  1.550e-05  alpha:  1.855e-01  linmin: -2.296e-02  cgtest:  3.926e-01  t[s]:   3153.90
	FillingsUpdate:  mu: -0.145500000  nElectrons: 224.000000  magneticMoment: [ Abs: 0.54956  Tot: -0.52745 ]
LCAOMinimize: Iter:  26  G: -351.6313186192795683  |grad|_K:  1.018e-05  alpha:  8.065e-02  linmin: -1.051e-01  cgtest:  6.675e-01  t[s]:   3267.61
LCAOMinimize: Encountered beta<0, resetting CG.
	FillingsUpdate:  mu: -0.145500000  nElectrons: 224.000000  magneticMoment: [ Abs: 0.55119  Tot: -0.52829 ]
LCAOMinimize: Iter:  27  G: -351.6313223368839544  |grad|_K:  9.429e-06  alpha:  8.354e-02  linmin: -1.146e-01  cgtest:  9.936e-01  t[s]:   3382.35
LCAOMinimize: Encountered beta<0, resetting CG.
	FillingsUpdate:  mu: -0.145500000  nElectrons: 224.000000  magneticMoment: [ Abs: 0.55272  Tot: -0.52925 ]
LCAOMinimize: Iter:  28  G: -351.6313239610061032  |grad|_K:  8.960e-06  alpha:  6.309e-02  linmin: -1.224e-01  cgtest:  1.000e+00  t[s]:   3497.29
LCAOMinimize: Encountered beta<0, resetting CG.
	FillingsUpdate:  mu: -0.145500000  nElectrons: 224.000000  magneticMoment: [ Abs: 0.55372  Tot: -0.52984 ]
LCAOMinimize: Iter:  29  G: -351.6313250905483301  |grad|_K:  8.631e-06  alpha:  4.813e-02  linmin: -1.234e-01  cgtest:  1.001e+00  t[s]:   3611.82
LCAOMinimize: Encountered beta<0, resetting CG.
	FillingsUpdate:  mu: -0.145500000  nElectrons: 224.000000  magneticMoment: [ Abs: 0.55443  Tot: -0.53026 ]
LCAOMinimize: Iter:  30  G: -351.6313257986159897  |grad|_K:  8.400e-06  alpha:  3.529e-02  linmin: -1.240e-01  cgtest:  1.001e+00  t[s]:   3726.34
LCAOMinimize: Encountered beta<0, resetting CG.
LCAOMinimize: None of the convergence criteria satisfied after 30 iterations.
----- createFluidSolver() ----- (Fluid-side solver setup)
   Initializing fluid molecule 'H2O'
     Initializing site 'O'
       Electron density: proportional to exp(-r/0.36935)*erfc((r-0.51523)/0.36823) with norm 6.826
       Charge density: gaussian nuclear width 0.478731 with net site charge 0.826
       Polarizability: cuspless exponential with width 0.32 and norm 3.73
       Hard sphere radius: 2.57003 bohrs
       Positions in reference frame:
         [ +0.000000 +0.000000 +0.000000 ]
     Initializing site 'H'
       Electron density: proportional to exp(-r/0.34641)*erfc((r-0)/0.390882) with norm 0.587
       Charge density: gaussian nuclear width 0.377945 with net site charge -0.413
       Polarizability: cuspless exponential with width 0.39 and norm 3.3
       Positions in reference frame:
         [ +0.000000 -1.441945 +1.122523 ]
         [ +0.000000 +1.441945 +1.122523 ]
     Net charge: 0   dipole magnitude: 0.927204
     Initializing spherical shell mfKernel with radius 2.61727 Bohr
     deltaS corrections:
       site 'O': -7.54299
       site 'H': -6.83917
   Initializing fluid molecule 'Na+'
     Initializing site 'Na'
       Electron density: proportional to exp(-r/0.19682)*erfc((r-0.71491)/0.41314) with norm 8.1383
       Charge density: gaussian nuclear width 0.365347 with net site charge -1
       Hard sphere radius: 1.86327 bohrs
       Positions in reference frame:
         [ +0.000000 +0.000000 +0.000000 ]
     Net charge: -1   dipole magnitude: 0
     Initializing gaussian mfKernel with width: 1.55004 Bohr
     deltaS corrections:
       site 'Na': -22.3555
   Initializing fluid molecule 'F-'
     Initializing site 'F'
       Electron density: proportional to exp(-r/0.38886)*erfc((r-0)/0.438782) with norm 8
       Charge density: gaussian nuclear width 0.374796 with net site charge 1
       Hard sphere radius: 2.39995 bohrs
       Positions in reference frame:
         [ +0.000000 +0.000000 +0.000000 ]
     Net charge: 1   dipole magnitude: 0
     Initializing gaussian mfKernel with width: 1.59012 Bohr
     deltaS corrections:
       site 'F': -9.04335

Correction to mu due to finite nuclear width = -0.0109887
   Cavity determined by nc: 0.00142 and sigma: 0.707107
   Nonlocal vdW cavity from gaussian model electron density with norm = 8 and sigma = 0.993594 bohr
   Charge asymmetry in cavity with sensitivity pCavity = 36.5 e-bohr/Eh
   Electrostatic cavity expanded by eta = 1.46 bohrs
   Weighted density cavitation model constrained by Nbulk: 0.0049383 bohr^-3, Pvap: 3.14029 kPa, Rvdw: 2.61727 bohr and sigmaBulk: 4.62e-05 Eh/bohr^2 at T: 298 K.
   Weighted density dispersion model using vdW pair potentials with single solvent site with sqrtC6eff: 0.77 SI.
WARNING: Vibrations: switching off translationSym and rotationSym since useConstraints is on.

---- Citations for features of the code used in this run ----

   Software package:
      R. Sundararaman, K. Letchworth-Weaver, K.A. Schwarz, D. Gunceler, Y. Ozhabes and T.A. Arias, 'JDFTx: software for joint density-functional theory', SoftwareX 6, 278 (2017)

   gga-PBE exchange-correlation functional:
      J.P. Perdew, K. Burke and M. Ernzerhof, Phys. Rev. Lett. 77, 3865 (1996)

   Pseudopotentials:
      KF Garrity, JW Bennett, KM Rabe and D Vanderbilt, Comput. Mater. Sci. 81, 446 (2014)

   DFT-D3 dispersion correction:
      S. Grimme, J. Antony, S. Ehrlich and H. Krieg, J. Chem. Phys. 132, 154104 (2010)

   DFT-D2 dispersion correction:
      S. Grimme, J. Comput. Chem. 27, 1787 (2006)

   Charge-asymmetric nonlocally-determined local-electric (CANDLE) solvation model:
      R. Sundararaman and W.A. Goddard III, J. Chem. Phys. 142, 064107 (2015)

   Total energy minimization with Auxiliary Hamiltonian:
      C. Freysoldt, S. Boeck, and J. Neugebauer, Phys. Rev. B 79, 241103(R) (2009)

   Grand-canonical (fixed-potential) DFT:
      R. Sundararaman, W. A. Goddard III and T. A. Arias, J. Chem. Phys. 146, 114104 (2017)

   Linear-tetrahedron sampling for density of states:
      G. Lehmann and M. Taut, Phys. status solidi (b) 54, 469 (1972)

This list may not be complete. Please suggest additional citations or
report any other bugs at https://github.com/shankar1729/jdftx/issues

Initialization completed successfully at t[s]:   3741.22

------ Vibrations::calculate() -------
WARNING: Vibrations module is experimental. Please report bugs!
Compare results with and without symmetries and report discrepancies.
Degrees of freedom: 9 total, 9 symmetry-independent.

Computing DFT-D3 correction:
# coordination-number C 3.301 3.322 3.335 3.333 3.313 3.290 3.325 3.588 3.329 3.314 3.301 3.328 3.303 3.301 3.323 3.608 3.267 3.301 3.320 3.335 3.329 3.303 3.302 3.328 3.335 3.320 3.301 3.268 3.585 3.323 3.301 3.303 3.325 3.301 3.313 3.329 3.606 3.327 3.289 3.313 3.332 3.335 3.323 3.301 2.996
# coordination-number N 3.178 3.179 3.177 3.179
# coordination-number Ti 7.481
# coordination-number O 1.998 1.034
# diagonal-C6 C 24.28 24.06 23.92 23.94 24.15 24.38 24.02 20.42 23.98 24.15 24.27 24.00 24.25 24.28 24.05 20.18 24.58 24.28 24.08 23.92 23.98 24.25 24.26 24.00 23.92 24.08 24.27 24.57 20.46 24.05 24.27 24.25 24.03 24.28 24.15 23.99 20.21 24.01 24.38 24.15 23.95 23.92 24.05 24.28 25.68
# diagonal-C6 N 15.60 15.60 15.60 15.60
# diagonal-C6 Ti 321.59
# diagonal-C6 O 10.41 12.78
EvdW_6 =   -0.039674
EvdW_8 =   -0.031871
Fluid solver invoked on fresh (random / LCAO) wavefunctions
Running a vacuum solve first:

-------- Initial electronic minimization -----------
	FillingsUpdate:  mu: -0.210575673  nElectrons: 224.000000  magneticMoment: [ Abs: 0.55443  Tot: -0.53026 ]
ElecMinimize: Iter:   0  G: -351.631334928595550  |grad|_K:  1.444e-04  alpha:  1.000e+00
	FillingsUpdate:  mu: -0.136656934  nElectrons: 224.000000  magneticMoment: [ Abs: 0.59219  Tot: -0.53819 ]
	SubspaceRotationAdjust: set factor to 1
ElecMinimize: Iter:   1  G: -354.575572951306640  |grad|_K:  5.530e-05  alpha:  6.810e-01  linmin:  1.023e-04  t[s]:   3924.29
	FillingsUpdate:  mu: -0.078051949  nElectrons: 224.000000  magneticMoment: [ Abs: 0.28415  Tot: -0.19803 ]
	SubspaceRotationAdjust: set factor to 0.785
ElecMinimize: Iter:   2  G: -354.682301185510767  |grad|_K:  3.629e-05  alpha:  1.427e-01  linmin: -1.173e-03  t[s]:   4036.28
	FillingsUpdate:  mu: -0.092946554  nElectrons: 224.000000  magneticMoment: [ Abs: 0.39379  Tot: -0.32792 ]
	SubspaceRotationAdjust: set factor to 0.593
ElecMinimize: Iter:   3  G: -354.825623061778174  |grad|_K:  3.284e-05  alpha:  4.090e-01  linmin:  1.058e-04  t[s]:   4147.94
	FillingsUpdate:  mu: -0.103632823  nElectrons: 224.000000  magneticMoment: [ Abs: 0.23221  Tot: -0.17569 ]
	SubspaceRotationAdjust: set factor to 0.569
ElecMinimize: Iter:   4  G: -354.862414514853810  |grad|_K:  1.797e-05  alpha:  2.062e-01  linmin:  8.331e-05  t[s]:   4259.59
	FillingsUpdate:  mu: -0.114865867  nElectrons: 224.000000  magneticMoment: [ Abs: 0.15222  Tot: -0.09534 ]
	SubspaceRotationAdjust: set factor to 0.639
ElecMinimize: Iter:   5  G: -354.891803654076909  |grad|_K:  1.391e-05  alpha:  4.545e-01  linmin: -2.786e-05  t[s]:   4371.58
	FillingsUpdate:  mu: -0.105377324  nElectrons: 224.000000  magneticMoment: [ Abs: 0.20553  Tot: -0.16703 ]
	SubspaceRotationAdjust: set factor to 0.526
ElecMinimize: Iter:   6  G: -354.903606971328372  |grad|_K:  8.733e-06  alpha:  2.681e-01  linmin: -1.834e-04  t[s]:   4483.34
	FillingsUpdate:  mu: -0.092339656  nElectrons: 224.000000  magneticMoment: [ Abs: 0.14301  Tot: -0.08885 ]
	SubspaceRotationAdjust: set factor to 0.463
ElecMinimize: Iter:   7  G: -354.908549241083108  |grad|_K:  7.312e-06  alpha:  2.981e-01  linmin: -3.828e-04  t[s]:   4595.07
	FillingsUpdate:  mu: -0.100254990  nElectrons: 224.000000  magneticMoment: [ Abs: 0.14711  Tot: -0.11477 ]
	SubspaceRotationAdjust: set factor to 0.552
ElecMinimize: Iter:   8  G: -354.912579208300144  |grad|_K:  4.222e-06  alpha:  3.422e-01  linmin:  1.249e-05  t[s]:   4706.77
	FillingsUpdate:  mu: -0.105884087  nElectrons: 224.000000  magneticMoment: [ Abs: 0.16628  Tot: -0.14509 ]
	SubspaceRotationAdjust: set factor to 0.484
ElecMinimize: Iter:   9  G: -354.913907990029202  |grad|_K:  3.761e-06  alpha:  3.561e-01  linmin:  4.832e-05  t[s]:   4818.53
	FillingsUpdate:  mu: -0.102755835  nElectrons: 224.000000  magneticMoment: [ Abs: 0.13243  Tot: -0.10805 ]
	SubspaceRotationAdjust: set factor to 0.469
ElecMinimize: Iter:  10  G: -354.914553267610017  |grad|_K:  2.116e-06  alpha:  2.277e-01  linmin:  5.975e-06  t[s]:   4929.97
	FillingsUpdate:  mu: -0.102009424  nElectrons: 224.000000  magneticMoment: [ Abs: 0.12708  Tot: -0.10418 ]
	SubspaceRotationAdjust: set factor to 0.43
ElecMinimize: Iter:  11  G: -354.914913531756838  |grad|_K:  1.834e-06  alpha:  3.850e-01  linmin:  1.146e-05  t[s]:   5041.98
	FillingsUpdate:  mu: -0.103845159  nElectrons: 224.000000  magneticMoment: [ Abs: 0.13191  Tot: -0.11414 ]
	SubspaceRotationAdjust: set factor to 0.477
ElecMinimize: Iter:  12  G: -354.915185396217737  |grad|_K:  1.339e-06  alpha:  3.876e-01  linmin:  9.358e-06  t[s]:   5153.90
	FillingsUpdate:  mu: -0.103161617  nElectrons: 224.000000  magneticMoment: [ Abs: 0.12247  Tot: -0.10560 ]
	SubspaceRotationAdjust: set factor to 0.408
ElecMinimize: Iter:  13  G: -354.915293219063187  |grad|_K:  9.745e-07  alpha:  2.884e-01  linmin: -3.778e-06  t[s]:   5265.57
	FillingsUpdate:  mu: -0.103046610  nElectrons: 224.000000  magneticMoment: [ Abs: 0.11995  Tot: -0.10535 ]
	SubspaceRotationAdjust: set factor to 0.467
ElecMinimize: Iter:  14  G: -354.915393519332270  |grad|_K:  7.743e-07  alpha:  5.016e-01  linmin: -2.298e-06  t[s]:   5377.34
	FillingsUpdate:  mu: -0.103659194  nElectrons: 224.000000  magneticMoment: [ Abs: 0.12300  Tot: -0.11001 ]
	SubspaceRotationAdjust: set factor to 0.391
ElecMinimize: Iter:  15  G: -354.915435972941111  |grad|_K:  6.180e-07  alpha:  3.358e-01  linmin:  5.318e-06  t[s]:   5489.65
	FillingsUpdate:  mu: -0.103187962  nElectrons: 224.000000  magneticMoment: [ Abs: 0.11664  Tot: -0.10399 ]
	SubspaceRotationAdjust: set factor to 0.397
ElecMinimize: Iter:  16  G: -354.915467019707478  |grad|_K:  4.351e-07  alpha:  3.869e-01  linmin: -5.741e-05  t[s]:   5601.45
	FillingsUpdate:  mu: -0.103383499  nElectrons: 224.000000  magneticMoment: [ Abs: 0.11493  Tot: -0.10299 ]
	SubspaceRotationAdjust: set factor to 0.388
ElecMinimize: Iter:  17  G: -354.915483823433362  |grad|_K:  3.446e-07  alpha:  4.208e-01  linmin: -3.934e-06  t[s]:   5713.15
	FillingsUpdate:  mu: -0.103771877  nElectrons: 224.000000  magneticMoment: [ Abs: 0.11685  Tot: -0.10577 ]
	SubspaceRotationAdjust: set factor to 0.363
ElecMinimize: Iter:  18  G: -354.915494266787164  |grad|_K:  2.560e-07  alpha:  4.180e-01  linmin:  3.872e-06  t[s]:   5825.04
	FillingsUpdate:  mu: -0.103492887  nElectrons: 224.000000  magneticMoment: [ Abs: 0.11523  Tot: -0.10428 ]
	SubspaceRotationAdjust: set factor to 0.34
ElecMinimize: Iter:  19  G: -354.915499234140043  |grad|_K:  1.915e-07  alpha:  3.611e-01  linmin:  5.969e-09  t[s]:   5936.59
	FillingsUpdate:  mu: -0.103399628  nElectrons: 224.000000  magneticMoment: [ Abs: 0.11391  Tot: -0.10315 ]
	SubspaceRotationAdjust: set factor to 0.368
ElecMinimize: Iter:  20  G: -354.915503320896221  |grad|_K:  1.525e-07  alpha:  5.304e-01  linmin:  2.465e-07  t[s]:   6048.11
	FillingsUpdate:  mu: -0.103577022  nElectrons: 224.000000  magneticMoment: [ Abs: 0.11432  Tot: -0.10381 ]
	SubspaceRotationAdjust: set factor to 0.335
ElecMinimize: Iter:  21  G: -354.915505029591657  |grad|_K:  1.080e-07  alpha:  3.494e-01  linmin:  5.532e-08  t[s]:   6160.00
	FillingsUpdate:  mu: -0.103538374  nElectrons: 224.000000  magneticMoment: [ Abs: 0.11360  Tot: -0.10322 ]
	SubspaceRotationAdjust: set factor to 0.344
ElecMinimize: Iter:  22  G: -354.915506238860871  |grad|_K:  8.718e-08  alpha:  4.934e-01  linmin: -3.616e-07  t[s]:   6271.65
	FillingsUpdate:  mu: -0.103466378  nElectrons: 224.000000  magneticMoment: [ Abs: 0.11297  Tot: -0.10267 ]
	SubspaceRotationAdjust: set factor to 0.342
ElecMinimize: Iter:  23  G: -354.915506930333549  |grad|_K:  6.852e-08  alpha:  4.328e-01  linmin: -8.055e-07  t[s]:   6383.30
	FillingsUpdate:  mu: -0.103528155  nElectrons: 224.000000  magneticMoment: [ Abs: 0.11311  Tot: -0.10295 ]
	SubspaceRotationAdjust: set factor to 0.317
ElecMinimize: Iter:  24  G: -354.915507349996517  |grad|_K:  5.032e-08  alpha:  4.253e-01  linmin:  2.396e-06  t[s]:   6494.77
	FillingsUpdate:  mu: -0.103531812  nElectrons: 224.000000  magneticMoment: [ Abs: 0.11287  Tot: -0.10277 ]
	SubspaceRotationAdjust: set factor to 0.337
ElecMinimize: Iter:  25  G: -354.915507579125290  |grad|_K:  3.828e-08  alpha:  4.306e-01  linmin:  2.899e-07  t[s]:   6606.56
	FillingsUpdate:  mu: -0.103499832  nElectrons: 224.000000  magneticMoment: [ Abs: 0.11250  Tot: -0.10242 ]
	SubspaceRotationAdjust: set factor to 0.319
ElecMinimize: Iter:  26  G: -354.915507722012080  |grad|_K:  3.057e-08  alpha:  4.640e-01  linmin: -1.792e-06  t[s]:   6718.02
	FillingsUpdate:  mu: -0.103522895  nElectrons: 224.000000  magneticMoment: [ Abs: 0.11253  Tot: -0.10252 ]
	SubspaceRotationAdjust: set factor to 0.321
ElecMinimize: Iter:  27  G: -354.915507806545634  |grad|_K:  2.341e-08  alpha:  4.301e-01  linmin:  1.905e-06  t[s]:   6829.98
	FillingsUpdate:  mu: -0.103533986  nElectrons: 224.000000  magneticMoment: [ Abs: 0.11252  Tot: -0.10255 ]
	SubspaceRotationAdjust: set factor to 0.325
ElecMinimize: Iter:  28  G: -354.915507860451044  |grad|_K:  1.792e-08  alpha:  4.680e-01  linmin: -3.175e-06  t[s]:   6941.78
ElecMinimize: Converged (|Delta G|<1.000000e-07 for 2 iters).
Setting wave functions to eigenvectors of Hamiltonian
Converging empty states (this may take a while): |deigs|: 7.746e-03
Vacuum energy after initial minimize, F = -354.915507860451044

Shifting auxilliary hamiltonian by -0.041966 to set nElectrons=224.000000

-------- Electronic minimization -----------
	Linear fluid (dielectric constant: 78.4, screening length: 8.12261 Bohr) occupying 0.723610 of unit cell:	Completed after 22 iterations at t[s]:   7508.01
	FillingsUpdate:  mu: -0.145500000  nElectrons: 224.000000  magneticMoment: [ Abs: 0.11148  Tot: -0.10145 ]
ElecMinimize: Iter:   0  G: -354.919358038962173  |grad|_K:  1.540e-05  alpha:  1.000e+00
	Linear fluid (dielectric constant: 78.4, screening length: 8.12261 Bohr) occupying 0.727372 of unit cell:	Completed after 18 iterations at t[s]:   7614.93
	Linear fluid (dielectric constant: 78.4, screening length: 8.12261 Bohr) occupying 0.726161 of unit cell:	Completed after 16 iterations at t[s]:   7660.28
	FillingsUpdate:  mu: -0.145500000  nElectrons: 224.292055  magneticMoment: [ Abs: 0.03237  Tot: -0.00241 ]
	SubspaceRotationAdjust: set factor to 0.487
ElecMinimize: Iter:   1  G: -354.928144219833030  |grad|_K:  3.843e-06  alpha:  5.551e-01  linmin: -2.908e-03  t[s]:   7708.96
	Linear fluid (dielectric constant: 78.4, screening length: 8.12261 Bohr) occupying 0.726657 of unit cell:	Completed after 13 iterations at t[s]:   7758.29
	Linear fluid (dielectric constant: 78.4, screening length: 8.12261 Bohr) occupying 0.726935 of unit cell:	Completed after 12 iterations at t[s]:   7800.83
	FillingsUpdate:  mu: -0.145500000  nElectrons: 224.332712  magneticMoment: [ Abs: 0.01984  Tot: -0.00146 ]
	SubspaceRotationAdjust: set factor to 0.465
ElecMinimize: Iter:   2  G: -354.930973626352966  |grad|_K:  3.657e-06  alpha:  8.714e-01  linmin: -5.163e-05  t[s]:   7850.51
	Linear fluid (dielectric constant: 78.4, screening length: 8.12261 Bohr) occupying 0.728605 of unit cell:	Completed after 14 iterations at t[s]:   7900.12
	Linear fluid (dielectric constant: 78.4, screening length: 8.12261 Bohr) occupying 0.728262 of unit cell:	Completed after 10 iterations at t[s]:   7941.90
	FillingsUpdate:  mu: -0.145500000  nElectrons: 224.420852  magneticMoment: [ Abs: 0.01121  Tot: -0.00018 ]
	SubspaceRotationAdjust: set factor to 0.508
ElecMinimize: Iter:   3  G: -354.932870281032422  |grad|_K:  2.636e-06  alpha:  6.741e-01  linmin: -3.161e-05  t[s]:   7991.01
	Linear fluid (dielectric constant: 78.4, screening length: 8.12261 Bohr) occupying 0.729010 of unit cell:	Completed after 13 iterations at t[s]:   8040.01
	Linear fluid (dielectric constant: 78.4, screening length: 8.12261 Bohr) occupying 0.728728 of unit cell:	Completed after 10 iterations at t[s]:   8081.83
	FillingsUpdate:  mu: -0.145500000  nElectrons: 224.432571  magneticMoment: [ Abs: 0.00829  Tot: -0.00003 ]
	SubspaceRotationAdjust: set factor to 0.457
ElecMinimize: Iter:   4  G: -354.933464080593694  |grad|_K:  1.084e-06  alpha:  4.094e-01  linmin:  1.738e-05  t[s]:   8130.63
	Linear fluid (dielectric constant: 78.4, screening length: 8.12261 Bohr) occupying 0.728762 of unit cell:	Completed after 8 iterations at t[s]:   8176.98
	Linear fluid (dielectric constant: 78.4, screening length: 8.12261 Bohr) occupying 0.728785 of unit cell:	Completed after 7 iterations at t[s]:   8216.59
	FillingsUpdate:  mu: -0.145500000  nElectrons: 224.437160  magneticMoment: [ Abs: 0.00573  Tot: -0.00000 ]
	SubspaceRotationAdjust: set factor to 0.382
ElecMinimize: Iter:   5  G: -354.933632414494070  |grad|_K:  5.735e-07  alpha:  6.838e-01  linmin: -5.963e-06  t[s]:   8265.69
	Linear fluid (dielectric constant: 78.4, screening length: 8.12261 Bohr) occupying 0.728716 of unit cell:	Completed after 8 iterations at t[s]:   8312.17
	Linear fluid (dielectric constant: 78.4, screening length: 8.12261 Bohr) occupying 0.728710 of unit cell:	Completed after 2 iterations at t[s]:   8348.55
	FillingsUpdate:  mu: -0.145500000  nElectrons: 224.437070  magneticMoment: [ Abs: 0.00448  Tot: +0.00001 ]
	SubspaceRotationAdjust: set factor to 0.317
ElecMinimize: Iter:   6  G: -354.933683251209231  |grad|_K:  4.383e-07  alpha:  7.348e-01  linmin: -5.039e-05  t[s]:   8397.65
	Linear fluid (dielectric constant: 78.4, screening length: 8.12261 Bohr) occupying 0.728647 of unit cell:	Completed after 6 iterations at t[s]:   8442.37
	Linear fluid (dielectric constant: 78.4, screening length: 8.12261 Bohr) occupying 0.728664 of unit cell:	Completed after 2 iterations at t[s]:   8478.69
	FillingsUpdate:  mu: -0.145500000  nElectrons: 224.436934  magneticMoment: [ Abs: 0.00350  Tot: +0.00001 ]
	SubspaceRotationAdjust: set factor to 0.294
ElecMinimize: Iter:   7  G: -354.933705327588711  |grad|_K:  2.870e-07  alpha:  5.441e-01  linmin:  2.887e-05  t[s]:   8527.59
	Linear fluid (dielectric constant: 78.4, screening length: 8.12261 Bohr) occupying 0.728643 of unit cell:	Completed after 3 iterations at t[s]:   8570.33
	Linear fluid (dielectric constant: 78.4, screening length: 8.12261 Bohr) occupying 0.728639 of unit cell:	Completed after 0 iterations at t[s]:   8604.41
	FillingsUpdate:  mu: -0.145500000  nElectrons: 224.436491  magneticMoment: [ Abs: 0.00247  Tot: +0.00001 ]
	SubspaceRotationAdjust: set factor to 0.316
ElecMinimize: Iter:   8  G: -354.933716204704240  |grad|_K:  1.601e-07  alpha:  6.273e-01  linmin: -4.014e-04  t[s]:   8653.61
	Linear fluid (dielectric constant: 78.4, screening length: 8.12261 Bohr) occupying 0.728635 of unit cell:	Completed after 2 iterations at t[s]:   8695.58
	Linear fluid (dielectric constant: 78.4, screening length: 8.12261 Bohr) occupying 0.728634 of unit cell:	Completed after 0 iterations at t[s]:   8729.79
	FillingsUpdate:  mu: -0.145500000  nElectrons: 224.435983  magneticMoment: [ Abs: 0.00159  Tot: +0.00001 ]
	SubspaceRotationAdjust: set factor to 0.328
ElecMinimize: Iter:   9  G: -354.933721236715655  |grad|_K:  1.049e-07  alpha:  8.905e-01  linmin: -5.336e-04  t[s]:   8778.95
	Linear fluid (dielectric constant: 78.4, screening length: 8.12261 Bohr) occupying 0.728638 of unit cell:	Completed after 2 iterations at t[s]:   8820.62
	Linear fluid (dielectric constant: 78.4, screening length: 8.12261 Bohr) occupying 0.728637 of unit cell:	Completed after 0 iterations at t[s]:   8855.65
	FillingsUpdate:  mu: -0.145500000  nElectrons: 224.435699  magneticMoment: [ Abs: 0.00111  Tot: +0.00001 ]
	SubspaceRotationAdjust: set factor to 0.338
ElecMinimize: Iter:  10  G: -354.933722976959245  |grad|_K:  8.779e-08  alpha:  7.157e-01  linmin:  1.932e-04  t[s]:   8904.55
	Linear fluid (dielectric constant: 78.4, screening length: 8.12261 Bohr) occupying 0.728641 of unit cell:	Completed after 1 iterations at t[s]:   8945.77
	Linear fluid (dielectric constant: 78.4, screening length: 8.12261 Bohr) occupying 0.728639 of unit cell:	Completed after 0 iterations at t[s]:   8980.12
	FillingsUpdate:  mu: -0.145500000  nElectrons: 224.435569  magneticMoment: [ Abs: 0.00081  Tot: +0.00001 ]
	SubspaceRotationAdjust: set factor to 0.342
ElecMinimize: Iter:  11  G: -354.933723752970138  |grad|_K:  6.424e-08  alpha:  4.896e-01  linmin:  4.409e-04  t[s]:   9029.51
	Linear fluid (dielectric constant: 78.4, screening length: 8.12261 Bohr) occupying 0.728642 of unit cell:	Completed after 1 iterations at t[s]:   9070.84
	Linear fluid (dielectric constant: 78.4, screening length: 8.12261 Bohr) occupying 0.728641 of unit cell:	Completed after 0 iterations at t[s]:   9105.50
	FillingsUpdate:  mu: -0.145500000  nElectrons: 224.435565  magneticMoment: [ Abs: 0.00063  Tot: +0.00001 ]
	SubspaceRotationAdjust: set factor to 0.277
ElecMinimize: Iter:  12  G: -354.933724054312904  |grad|_K:  3.885e-08  alpha:  3.953e-01  linmin: -4.807e-04  t[s]:   9154.34
	Linear fluid (dielectric constant: 78.4, screening length: 8.12261 Bohr) occupying 0.728642 of unit cell:	Completed after 0 iterations at t[s]:   9194.44
	Linear fluid (dielectric constant: 78.4, screening length: 8.12261 Bohr) occupying 0.728643 of unit cell:	Completed after 1 iterations at t[s]:   9230.24
	FillingsUpdate:  mu: -0.145500000  nElectrons: 224.435580  magneticMoment: [ Abs: 0.00043  Tot: +0.00000 ]
	SubspaceRotationAdjust: set factor to 0.275
ElecMinimize: Iter:  13  G: -354.933724237877129  |grad|_K:  2.703e-08  alpha:  7.191e-01  linmin:  6.847e-04  t[s]:   9278.95
	Linear fluid (dielectric constant: 78.4, screening length: 8.12261 Bohr) occupying 0.728644 of unit cell:	Completed after 0 iterations at t[s]:   9319.39
	Linear fluid (dielectric constant: 78.4, screening length: 8.12261 Bohr) occupying 0.728644 of unit cell:	Completed after 0 iterations at t[s]:   9353.90
	FillingsUpdate:  mu: -0.145500000  nElectrons: 224.435617  magneticMoment: [ Abs: 0.00029  Tot: +0.00000 ]
	SubspaceRotationAdjust: set factor to 0.285
ElecMinimize: Iter:  14  G: -354.933724322348212  |grad|_K:  1.755e-08  alpha:  6.673e-01  linmin: -4.627e-07  t[s]:   9403.08
	Linear fluid (dielectric constant: 78.4, screening length: 8.12261 Bohr) occupying 0.728645 of unit cell:	Completed after 0 iterations at t[s]:   9443.58
	Linear fluid (dielectric constant: 78.4, screening length: 8.12261 Bohr) occupying 0.728645 of unit cell:	Completed after 0 iterations at t[s]:   9478.17
	FillingsUpdate:  mu: -0.145500000  nElectrons: 224.435651  magneticMoment: [ Abs: 0.00022  Tot: +0.00000 ]
	SubspaceRotationAdjust: set factor to 0.304
ElecMinimize: Iter:  15  G: -354.933724359643520  |grad|_K:  1.155e-08  alpha:  5.767e-01  linmin:  3.041e-06  t[s]:   9526.98
ElecMinimize: Converged (|Delta G|<1.000000e-07 for 2 iters).
Setting wave functions to eigenvectors of Hamiltonian
Converging empty states (this may take a while): |deigs|: 9.411e-04
Single-point solvation energy estimate, DeltaG = -0.018216499192476

Computing DFT-D3 correction:
# coordination-number C 3.301 3.322 3.335 3.333 3.313 3.290 3.325 3.588 3.329 3.314 3.301 3.328 3.303 3.301 3.323 3.608 3.267 3.301 3.320 3.335 3.329 3.303 3.302 3.328 3.335 3.320 3.301 3.268 3.585 3.323 3.301 3.303 3.325 3.301 3.313 3.329 3.606 3.327 3.289 3.313 3.332 3.335 3.323 3.301 2.996
# coordination-number N 3.178 3.179 3.177 3.179
# coordination-number Ti 7.481
# coordination-number O 1.998 1.034
# diagonal-C6 C 24.28 24.06 23.92 23.94 24.15 24.38 24.02 20.42 23.98 24.15 24.27 24.00 24.25 24.28 24.05 20.18 24.58 24.28 24.08 23.92 23.98 24.25 24.26 24.00 23.92 24.08 24.27 24.57 20.46 24.05 24.27 24.25 24.03 24.28 24.15 23.99 20.21 24.01 24.38 24.15 23.95 23.92 24.05 24.28 25.68
# diagonal-C6 N 15.60 15.60 15.60 15.60
# diagonal-C6 Ti 321.59
# diagonal-C6 O 10.41 12.78
EvdW_6 =   -0.039674
EvdW_8 =   -0.031871
Completed 1 of 10 configurations.

Computing DFT-D3 correction:
# coordination-number C 3.301 3.322 3.335 3.333 3.313 3.290 3.325 3.588 3.329 3.314 3.301 3.328 3.303 3.301 3.323 3.608 3.267 3.301 3.320 3.335 3.329 3.303 3.302 3.328 3.335 3.320 3.301 3.268 3.585 3.323 3.301 3.303 3.325 3.301 3.313 3.329 3.606 3.327 3.289 3.313 3.332 3.335 3.323 3.301 2.996
# coordination-number N 3.178 3.179 3.177 3.179
# coordination-number Ti 7.481
# coordination-number O 1.998 1.034
# diagonal-C6 C 24.28 24.06 23.92 23.94 24.15 24.38 24.02 20.42 23.98 24.15 24.27 24.00 24.25 24.28 24.05 20.18 24.58 24.28 24.08 23.92 23.98 24.25 24.26 24.00 23.92 24.08 24.27 24.57 20.46 24.05 24.27 24.25 24.03 24.28 24.15 23.99 20.21 24.01 24.38 24.15 23.95 23.92 24.05 24.28 25.68
# diagonal-C6 N 15.60 15.60 15.60 15.60
# diagonal-C6 Ti 321.59
# diagonal-C6 O 10.41 12.78
EvdW_6 =   -0.039674
EvdW_8 =   -0.031871
Shifting auxilliary hamiltonian by 0.000011 to set nElectrons=224.435651

-------- Electronic minimization -----------
	Linear fluid (dielectric constant: 78.4, screening length: 8.12261 Bohr) occupying 0.728644 of unit cell:	Completed after 7 iterations at t[s]:  10090.94
	FillingsUpdate:  mu: -0.145500000  nElectrons: 224.435651  magneticMoment: [ Abs: 0.00009  Tot: +0.00000 ]
ElecMinimize: Iter:   0  G: -354.933697531188841  |grad|_K:  3.277e-07  alpha:  1.000e+00
	Linear fluid (dielectric constant: 78.4, screening length: 8.12261 Bohr) occupying 0.728643 of unit cell:	Completed after 3 iterations at t[s]:  10189.79
	Linear fluid (dielectric constant: 78.4, screening length: 8.12261 Bohr) occupying 0.728644 of unit cell:	Completed after 2 iterations at t[s]:  10226.22
	FillingsUpdate:  mu: -0.145500000  nElectrons: 224.435663  magneticMoment: [ Abs: 0.00007  Tot: +0.00000 ]
	SubspaceRotationAdjust: set factor to 0.42
ElecMinimize: Iter:   1  G: -354.933715398146148  |grad|_K:  1.379e-07  alpha:  7.916e-01  linmin:  7.756e-05  t[s]:  10275.58
	Linear fluid (dielectric constant: 78.4, screening length: 8.12261 Bohr) occupying 0.728644 of unit cell:	Completed after 2 iterations at t[s]:  10317.96
	Linear fluid (dielectric constant: 78.4, screening length: 8.12261 Bohr) occupying 0.728644 of unit cell:	Completed after 0 iterations at t[s]:  10352.51
	FillingsUpdate:  mu: -0.145500000  nElectrons: 224.435698  magneticMoment: [ Abs: 0.00006  Tot: +0.00000 ]
	SubspaceRotationAdjust: set factor to 0.562
ElecMinimize: Iter:   2  G: -354.933719550217688  |grad|_K:  9.226e-08  alpha:  1.034e+00  linmin: -1.334e-04  t[s]:  10402.02
	Linear fluid (dielectric constant: 78.4, screening length: 8.12261 Bohr) occupying 0.728643 of unit cell:	Completed after 2 iterations at t[s]:  10444.35
	Linear fluid (dielectric constant: 78.4, screening length: 8.12261 Bohr) occupying 0.728644 of unit cell:	Completed after 1 iterations at t[s]:  10480.79
	FillingsUpdate:  mu: -0.145500000  nElectrons: 224.435683  magneticMoment: [ Abs: 0.00004  Tot: +0.00000 ]
	SubspaceRotationAdjust: set factor to 0.662
ElecMinimize: Iter:   3  G: -354.933720778295310  |grad|_K:  6.452e-08  alpha:  6.657e-01  linmin:  4.756e-05  t[s]:  10530.03
	Linear fluid (dielectric constant: 78.4, screening length: 8.12261 Bohr) occupying 0.728644 of unit cell:	Completed after 2 iterations at t[s]:  10572.24
	Linear fluid (dielectric constant: 78.4, screening length: 8.12261 Bohr) occupying 0.728644 of unit cell:	Completed after 1 iterations at t[s]:  10608.36
	FillingsUpdate:  mu: -0.145500000  nElectrons: 224.435725  magneticMoment: [ Abs: 0.00003  Tot: +0.00000 ]
	SubspaceRotationAdjust: set factor to 0.553
ElecMinimize: Iter:   4  G: -354.933721098090587  |grad|_K:  4.710e-08  alpha:  3.830e-01  linmin:  1.785e-04  t[s]:  10657.56
	Linear fluid (dielectric constant: 78.4, screening length: 8.12261 Bohr) occupying 0.728643 of unit cell:	Completed after 2 iterations at t[s]:  10699.97
	Linear fluid (dielectric constant: 78.4, screening length: 8.12261 Bohr) occupying 0.728643 of unit cell:	Completed after 0 iterations at t[s]:  10734.47
	FillingsUpdate:  mu: -0.145500000  nElectrons: 224.435703  magneticMoment: [ Abs: 0.00003  Tot: +0.00000 ]
	SubspaceRotationAdjust: set factor to 0.367
ElecMinimize: Iter:   5  G: -354.933721215492596  |grad|_K:  2.595e-08  alpha:  2.948e-01  linmin: -6.843e-05  t[s]:  10783.52
	Linear fluid (dielectric constant: 78.4, screening length: 8.12261 Bohr) occupying 0.728643 of unit cell:	Completed after 0 iterations at t[s]:  10824.75
	Linear fluid (dielectric constant: 78.4, screening length: 8.12261 Bohr) occupying 0.728644 of unit cell:	Completed after 0 iterations at t[s]:  10859.25
	FillingsUpdate:  mu: -0.145500000  nElectrons: 224.435713  magneticMoment: [ Abs: 0.00002  Tot: +0.00000 ]
	SubspaceRotationAdjust: set factor to 0.58
ElecMinimize: Iter:   6  G: -354.933721299564752  |grad|_K:  1.511e-08  alpha:  4.855e-01  linmin: -8.078e-04  t[s]:  10908.15
	Linear fluid (dielectric constant: 78.4, screening length: 8.12261 Bohr) occupying 0.728644 of unit cell:	Completed after 1 iterations at t[s]:  10949.82
	Linear fluid (dielectric constant: 78.4, screening length: 8.12261 Bohr) occupying 0.728644 of unit cell:	Completed after 0 iterations at t[s]:  10984.08
	FillingsUpdate:  mu: -0.145500000  nElectrons: 224.435723  magneticMoment: [ Abs: 0.00002  Tot: +0.00000 ]
	SubspaceRotationAdjust: set factor to 0.462
ElecMinimize: Iter:   7  G: -354.933721300190996  |grad|_K:  1.820e-08  alpha:  2.176e-01  linmin:  2.357e-04  t[s]:  11033.74
ElecMinimize: Converged (|Delta G|<1.000000e-07 for 2 iters).
Setting wave functions to eigenvectors of Hamiltonian
Converging empty states (this may take a while): |deigs|: 1.017e-07

Computing DFT-D3 correction:
# coordination-number C 3.301 3.322 3.335 3.333 3.313 3.290 3.325 3.588 3.329 3.314 3.301 3.328 3.303 3.301 3.323 3.608 3.267 3.301 3.320 3.335 3.329 3.303 3.302 3.328 3.335 3.320 3.301 3.268 3.585 3.323 3.301 3.303 3.325 3.301 3.313 3.329 3.606 3.327 3.289 3.313 3.332 3.335 3.323 3.301 2.996
# coordination-number N 3.178 3.179 3.177 3.179
# coordination-number Ti 7.481
# coordination-number O 1.998 1.034
# diagonal-C6 C 24.28 24.06 23.92 23.94 24.15 24.38 24.02 20.42 23.98 24.15 24.27 24.00 24.25 24.28 24.05 20.18 24.58 24.28 24.08 23.92 23.98 24.25 24.26 24.00 23.92 24.08 24.27 24.57 20.46 24.05 24.27 24.25 24.03 24.28 24.15 23.99 20.21 24.01 24.38 24.15 23.95 23.92 24.05 24.28 25.68
# diagonal-C6 N 15.60 15.60 15.60 15.60
# diagonal-C6 Ti 321.59
# diagonal-C6 O 10.41 12.78
EvdW_6 =   -0.039674
EvdW_8 =   -0.031871
Completed 2 of 10 configurations.

Computing DFT-D3 correction:
# coordination-number C 3.301 3.322 3.335 3.333 3.313 3.290 3.325 3.588 3.329 3.314 3.301 3.328 3.303 3.301 3.323 3.608 3.267 3.301 3.320 3.335 3.329 3.303 3.302 3.328 3.335 3.320 3.301 3.268 3.585 3.323 3.301 3.303 3.325 3.301 3.313 3.329 3.606 3.327 3.289 3.313 3.332 3.335 3.323 3.301 2.996
# coordination-number N 3.178 3.179 3.177 3.179
# coordination-number Ti 7.481
# coordination-number O 1.999 1.034
# diagonal-C6 C 24.28 24.06 23.92 23.94 24.15 24.38 24.02 20.42 23.98 24.15 24.27 24.00 24.25 24.28 24.05 20.18 24.58 24.28 24.08 23.92 23.98 24.25 24.26 24.00 23.92 24.08 24.27 24.57 20.46 24.05 24.27 24.25 24.03 24.28 24.15 23.99 20.21 24.01 24.38 24.15 23.95 23.92 24.05 24.28 25.68
# diagonal-C6 N 15.60 15.60 15.60 15.60
# diagonal-C6 Ti 321.59
# diagonal-C6 O 10.41 12.78
EvdW_6 =   -0.039674
EvdW_8 =   -0.031871
Shifting auxilliary hamiltonian by -0.000012 to set nElectrons=224.435723

-------- Electronic minimization -----------
	Linear fluid (dielectric constant: 78.4, screening length: 8.12261 Bohr) occupying 0.728659 of unit cell:	Completed after 7 iterations at t[s]:  11239.60
	FillingsUpdate:  mu: -0.145500000  nElectrons: 224.435723  magneticMoment: [ Abs: 0.00001  Tot: +0.00000 ]
ElecMinimize: Iter:   0  G: -354.933637433168713  |grad|_K:  5.973e-07  alpha:  1.000e+00
	Linear fluid (dielectric constant: 78.4, screening length: 8.12261 Bohr) occupying 0.728667 of unit cell:	Completed after 7 iterations at t[s]:  11340.66
	Linear fluid (dielectric constant: 78.4, screening length: 8.12261 Bohr) occupying 0.728664 of unit cell:	Completed after 3 iterations at t[s]:  11377.83
	FillingsUpdate:  mu: -0.145500000  nElectrons: 224.435837  magneticMoment: [ Abs: 0.00001  Tot: +0.00000 ]
	SubspaceRotationAdjust: set factor to 0.487
ElecMinimize: Iter:   1  G: -354.933687058192049  |grad|_K:  2.954e-07  alpha:  6.611e-01  linmin:  2.595e-05  t[s]:  11427.54
	Linear fluid (dielectric constant: 78.4, screening length: 8.12261 Bohr) occupying 0.728669 of unit cell:	Completed after 4 iterations at t[s]:  11471.18
	Linear fluid (dielectric constant: 78.4, screening length: 8.12261 Bohr) occupying 0.728668 of unit cell:	Completed after 2 iterations at t[s]:  11508.09
	FillingsUpdate:  mu: -0.145500000  nElectrons: 224.435646  magneticMoment: [ Abs: 0.00001  Tot: +0.00000 ]
	SubspaceRotationAdjust: set factor to 0.476
ElecMinimize: Iter:   2  G: -354.933697576769362  |grad|_K:  2.004e-07  alpha:  5.760e-01  linmin: -2.201e-05  t[s]:  11557.31
	Linear fluid (dielectric constant: 78.4, screening length: 8.12261 Bohr) occupying 0.728672 of unit cell:	Completed after 2 iterations at t[s]:  11599.41
	Linear fluid (dielectric constant: 78.4, screening length: 8.12261 Bohr) occupying 0.728672 of unit cell:	Completed after 0 iterations at t[s]:  11635.46
	FillingsUpdate:  mu: -0.145500000  nElectrons: 224.435726  magneticMoment: [ Abs: 0.00000  Tot: +0.00000 ]
	SubspaceRotationAdjust: set factor to 0.396
ElecMinimize: Iter:   3  G: -354.933701892708996  |grad|_K:  1.458e-07  alpha:  5.084e-01  linmin:  4.437e-04  t[s]:  11685.30
	Linear fluid (dielectric constant: 78.4, screening length: 8.12261 Bohr) occupying 0.728672 of unit cell:	Completed after 2 iterations at t[s]:  11727.53
	Linear fluid (dielectric constant: 78.4, screening length: 8.12261 Bohr) occupying 0.728672 of unit cell:	Completed after 1 iterations at t[s]:  11763.60
	FillingsUpdate:  mu: -0.145500000  nElectrons: 224.435663  magneticMoment: [ Abs: 0.00000  Tot: +0.00000 ]
	SubspaceRotationAdjust: set factor to 0.309
ElecMinimize: Iter:   4  G: -354.933703614942090  |grad|_K:  5.461e-08  alpha:  4.132e-01  linmin: -3.907e-05  t[s]:  11813.77
	Linear fluid (dielectric constant: 78.4, screening length: 8.12261 Bohr) occupying 0.728673 of unit cell:	Completed after 0 iterations at t[s]:  11853.94
	Linear fluid (dielectric constant: 78.4, screening length: 8.12261 Bohr) occupying 0.728674 of unit cell:	Completed after 1 iterations at t[s]:  11889.83
	FillingsUpdate:  mu: -0.145500000  nElectrons: 224.435687  magneticMoment: [ Abs: 0.00000  Tot: +0.00000 ]
	SubspaceRotationAdjust: set factor to 0.27
ElecMinimize: Iter:   5  G: -354.933704014992259  |grad|_K:  3.482e-08  alpha:  8.325e-01  linmin:  1.985e-03  t[s]:  11939.19
	Linear fluid (dielectric constant: 78.4, screening length: 8.12261 Bohr) occupying 0.728675 of unit cell:	Completed after 2 iterations at t[s]:  11981.37
	Linear fluid (dielectric constant: 78.4, screening length: 8.12261 Bohr) occupying 0.728675 of unit cell:	Completed after 0 iterations at t[s]:  12015.80
	FillingsUpdate:  mu: -0.145500000  nElectrons: 224.435678  magneticMoment: [ Abs: 0.00000  Tot: +0.00000 ]
	SubspaceRotationAdjust: set factor to 0.251
ElecMinimize: Iter:   6  G: -354.933704143625675  |grad|_K:  2.395e-08  alpha:  6.130e-01  linmin:  5.969e-04  t[s]:  12065.32
	Linear fluid (dielectric constant: 78.4, screening length: 8.12261 Bohr) occupying 0.728675 of unit cell:	Completed after 0 iterations at t[s]:  12105.50
	Linear fluid (dielectric constant: 78.4, screening length: 8.12261 Bohr) occupying 0.728675 of unit cell:	Completed after 0 iterations at t[s]:  12139.93
	FillingsUpdate:  mu: -0.145500000  nElectrons: 224.435677  magneticMoment: [ Abs: 0.00000  Tot: +0.00000 ]
	SubspaceRotationAdjust: set factor to 0.279
ElecMinimize: Iter:   7  G: -354.933704212087036  |grad|_K:  1.323e-08  alpha:  5.988e-01  linmin: -1.334e-06  t[s]:  12189.49
	Linear fluid (dielectric constant: 78.4, screening length: 8.12261 Bohr) occupying 0.728675 of unit cell:	Completed after 2 iterations at t[s]:  12231.98
	Linear fluid (dielectric constant: 78.4, screening length: 8.12261 Bohr) occupying 0.728675 of unit cell:	Completed after 0 iterations at t[s]:  12266.34
ElecMinimize: 	Step increased G by 1.575523e-08, reducing alpha to 1.807063e-02.
	Linear fluid (dielectric constant: 78.4, screening length: 8.12261 Bohr) occupying 0.728675 of unit cell:	Completed after 0 iterations at t[s]:  12347.34
ElecMinimize: 	Step increased G by 1.559084e-08, reducing alpha to 1.807063e-03.
	Linear fluid (dielectric constant: 78.4, screening length: 8.12261 Bohr) occupying 0.728675 of unit cell:	Completed after 0 iterations at t[s]:  12427.77
ElecMinimize: 	Step increased G by 1.573301e-08, reducing alpha to 1.807063e-04.
ElecMinimize: 	Step failed to reduce G after 3 attempts. Quitting step.
ElecMinimize: 	Undoing step.
	Linear fluid (dielectric constant: 78.4, screening length: 8.12261 Bohr) occupying 0.728675 of unit cell:	Completed after 0 iterations at t[s]:  12508.42
ElecMinimize: 	Step failed: resetting search direction.
	FillingsUpdate:  mu: -0.145500000  nElectrons: 224.435677  magneticMoment: [ Abs: 0.00000  Tot: +0.00000 ]
	SubspaceRotationAdjust: set factor to 0.264
ElecMinimize: Iter:   8  G: -354.933704196355620  |grad|_K:  1.889e-08  alpha:  1.807e-04
	Linear fluid (dielectric constant: 78.4, screening length: 8.12261 Bohr) occupying 0.728675 of unit cell:	Completed after 2 iterations at t[s]:  12599.89
	Linear fluid (dielectric constant: 78.4, screening length: 8.12261 Bohr) occupying 0.728675 of unit cell:	Completed after 0 iterations at t[s]:  12634.64
	FillingsUpdate:  mu: -0.145500000  nElectrons: 224.435675  magneticMoment: [ Abs: 0.00000  Tot: +0.00000 ]
	SubspaceRotationAdjust: set factor to 0.217
ElecMinimize: Iter:   9  G: -354.933704212110740  |grad|_K:  1.658e-08  alpha:  2.522e-01  linmin:  7.984e-03  t[s]:  12683.55
	Linear fluid (dielectric constant: 78.4, screening length: 8.12261 Bohr) occupying 0.728675 of unit cell:	Completed after 0 iterations at t[s]:  12724.27
	Linear fluid (dielectric constant: 78.4, screening length: 8.12261 Bohr) occupying 0.728675 of unit cell:	Completed after 0 iterations at t[s]:  12758.73
	FillingsUpdate:  mu: -0.145500000  nElectrons: 224.435683  magneticMoment: [ Abs: 0.00000  Tot: +0.00000 ]
	SubspaceRotationAdjust: set factor to 0.286
ElecMinimize: Iter:  10  G: -354.933704230194223  |grad|_K:  1.604e-08  alpha:  4.852e-01  linmin:  1.691e-05  t[s]:  12807.54
ElecMinimize: Converged (|Delta G|<1.000000e-07 for 2 iters).
Setting wave functions to eigenvectors of Hamiltonian
Converging empty states (this may take a while): |deigs|: 1.964e-08

Computing DFT-D3 correction:
# coordination-number C 3.301 3.322 3.335 3.333 3.313 3.290 3.325 3.588 3.329 3.314 3.301 3.328 3.303 3.301 3.323 3.608 3.267 3.301 3.320 3.335 3.329 3.303 3.302 3.328 3.335 3.320 3.301 3.268 3.585 3.323 3.301 3.303 3.325 3.301 3.313 3.329 3.606 3.327 3.289 3.313 3.332 3.335 3.323 3.301 2.996
# coordination-number N 3.178 3.179 3.177 3.179
# coordination-number Ti 7.481
# coordination-number O 1.999 1.034
# diagonal-C6 C 24.28 24.06 23.92 23.94 24.15 24.38 24.02 20.42 23.98 24.15 24.27 24.00 24.25 24.28 24.05 20.18 24.58 24.28 24.08 23.92 23.98 24.25 24.26 24.00 23.92 24.08 24.27 24.57 20.46 24.05 24.27 24.25 24.03 24.28 24.15 23.99 20.21 24.01 24.38 24.15 23.95 23.92 24.05 24.28 25.68
# diagonal-C6 N 15.60 15.60 15.60 15.60
# diagonal-C6 Ti 321.59
# diagonal-C6 O 10.41 12.78
EvdW_6 =   -0.039674
EvdW_8 =   -0.031871
Completed 3 of 10 configurations.

Computing DFT-D3 correction:
# coordination-number C 3.301 3.322 3.335 3.333 3.313 3.290 3.325 3.588 3.329 3.314 3.301 3.328 3.303 3.301 3.323 3.608 3.267 3.301 3.320 3.335 3.329 3.303 3.302 3.328 3.335 3.320 3.301 3.268 3.585 3.323 3.301 3.303 3.325 3.301 3.313 3.329 3.606 3.327 3.289 3.313 3.332 3.335 3.323 3.301 2.995
# coordination-number N 3.178 3.179 3.177 3.179
# coordination-number Ti 7.480
# coordination-number O 1.998 1.035
# diagonal-C6 C 24.28 24.06 23.92 23.94 24.15 24.38 24.02 20.42 23.98 24.15 24.27 24.00 24.25 24.28 24.05 20.18 24.58 24.28 24.08 23.92 23.98 24.25 24.26 24.00 23.92 24.08 24.27 24.57 20.46 24.05 24.27 24.25 24.03 24.28 24.15 23.99 20.21 24.01 24.38 24.15 23.95 23.92 24.05 24.28 25.68
# diagonal-C6 N 15.60 15.60 15.60 15.60
# diagonal-C6 Ti 321.59
# diagonal-C6 O 10.41 12.78
EvdW_6 =   -0.039674
EvdW_8 =   -0.031865
Shifting auxilliary hamiltonian by 0.000008 to set nElectrons=224.435683

-------- Electronic minimization -----------
	Linear fluid (dielectric constant: 78.4, screening length: 8.12261 Bohr) occupying 0.728607 of unit cell:	Completed after 8 iterations at t[s]:  12980.58
	FillingsUpdate:  mu: -0.145500000  nElectrons: 224.435683  magneticMoment: [ Abs: 0.00000  Tot: +0.00000 ]
ElecMinimize: Iter:   0  G: -354.933592313001327  |grad|_K:  7.619e-07  alpha:  1.000e+00
	Linear fluid (dielectric constant: 78.4, screening length: 8.12261 Bohr) occupying 0.728606 of unit cell:	Completed after 7 iterations at t[s]:  13081.14
	Linear fluid (dielectric constant: 78.4, screening length: 8.12261 Bohr) occupying 0.728607 of unit cell:	Completed after 3 iterations at t[s]:  13118.53
	FillingsUpdate:  mu: -0.145500000  nElectrons: 224.435434  magneticMoment: [ Abs: 0.00000  Tot: +0.00000 ]
	SubspaceRotationAdjust: set factor to 0.283
ElecMinimize: Iter:   1  G: -354.933665128020266  |grad|_K:  3.472e-07  alpha:  5.964e-01  linmin:  2.765e-05  t[s]:  13167.48
	Linear fluid (dielectric constant: 78.4, screening length: 8.12261 Bohr) occupying 0.728594 of unit cell:	Completed after 3 iterations at t[s]:  13210.59
	Linear fluid (dielectric constant: 78.4, screening length: 8.12261 Bohr) occupying 0.728593 of unit cell:	Completed after 0 iterations at t[s]:  13245.29
	FillingsUpdate:  mu: -0.145500000  nElectrons: 224.435482  magneticMoment: [ Abs: 0.00000  Tot: +0.00000 ]
	SubspaceRotationAdjust: set factor to 0.326
ElecMinimize: Iter:   2  G: -354.933681553461383  |grad|_K:  2.184e-07  alpha:  6.477e-01  linmin: -4.308e-04  t[s]:  13294.76
	Linear fluid (dielectric constant: 78.4, screening length: 8.12261 Bohr) occupying 0.728582 of unit cell:	Completed after 2 iterations at t[s]:  13336.84
	Linear fluid (dielectric constant: 78.4, screening length: 8.12261 Bohr) occupying 0.728581 of unit cell:	Completed after 0 iterations at t[s]:  13371.65
	FillingsUpdate:  mu: -0.145500000  nElectrons: 224.435383  magneticMoment: [ Abs: 0.00000  Tot: +0.00000 ]
	SubspaceRotationAdjust: set factor to 0.364
ElecMinimize: Iter:   3  G: -354.933688842808010  |grad|_K:  1.595e-07  alpha:  7.070e-01  linmin: -1.409e-04  t[s]:  13421.00
	Linear fluid (dielectric constant: 78.4, screening length: 8.12261 Bohr) occupying 0.728572 of unit cell:	Completed after 2 iterations at t[s]:  13463.15
	Linear fluid (dielectric constant: 78.4, screening length: 8.12261 Bohr) occupying 0.728574 of unit cell:	Completed after 0 iterations at t[s]:  13497.86
	FillingsUpdate:  mu: -0.145500000  nElectrons: 224.435336  magneticMoment: [ Abs: 0.00000  Tot: +0.00000 ]
	SubspaceRotationAdjust: set factor to 0.428
ElecMinimize: Iter:   4  G: -354.933692138486833  |grad|_K:  8.978e-08  alpha:  5.978e-01  linmin:  3.966e-04  t[s]:  13547.14
	Linear fluid (dielectric constant: 78.4, screening length: 8.12261 Bohr) occupying 0.728567 of unit cell:	Completed after 2 iterations at t[s]:  13589.26
	Linear fluid (dielectric constant: 78.4, screening length: 8.12261 Bohr) occupying 0.728566 of unit cell:	Completed after 0 iterations at t[s]:  13624.08
	FillingsUpdate:  mu: -0.145500000  nElectrons: 224.435249  magneticMoment: [ Abs: 0.00000  Tot: +0.00000 ]
	SubspaceRotationAdjust: set factor to 0.504
ElecMinimize: Iter:   5  G: -354.933693229365645  |grad|_K:  4.750e-08  alpha:  6.705e-01  linmin: -8.052e-04  t[s]:  13673.59
	Linear fluid (dielectric constant: 78.4, screening length: 8.12261 Bohr) occupying 0.728563 of unit cell:	Completed after 1 iterations at t[s]:  13715.13
	Linear fluid (dielectric constant: 78.4, screening length: 8.12261 Bohr) occupying 0.728562 of unit cell:	Completed after 0 iterations at t[s]:  13749.88
	FillingsUpdate:  mu: -0.145500000  nElectrons: 224.435214  magneticMoment: [ Abs: 0.00000  Tot: +0.00000 ]
	SubspaceRotationAdjust: set factor to 0.574
ElecMinimize: Iter:   6  G: -354.933693704453731  |grad|_K:  2.801e-08  alpha:  8.934e-01  linmin: -2.768e-04  t[s]:  13799.37
	Linear fluid (dielectric constant: 78.4, screening length: 8.12261 Bohr) occupying 0.728560 of unit cell:	Completed after 2 iterations at t[s]:  13841.53
	Linear fluid (dielectric constant: 78.4, screening length: 8.12261 Bohr) occupying 0.728561 of unit cell:	Completed after 0 iterations at t[s]:  13876.20
	FillingsUpdate:  mu: -0.145500000  nElectrons: 224.435185  magneticMoment: [ Abs: 0.00000  Tot: +0.00000 ]
	SubspaceRotationAdjust: set factor to 0.55
ElecMinimize: Iter:   7  G: -354.933693772259005  |grad|_K:  3.139e-08  alpha:  4.544e-01  linmin:  3.857e-04  t[s]:  13925.64
	Linear fluid (dielectric constant: 78.4, screening length: 8.12261 Bohr) occupying 0.728559 of unit cell:	Completed after 1 iterations at t[s]:  13967.16
	Linear fluid (dielectric constant: 78.4, screening length: 8.12261 Bohr) occupying 0.728560 of unit cell:	Completed after 0 iterations at t[s]:  14001.79
	FillingsUpdate:  mu: -0.145500000  nElectrons: 224.435146  magneticMoment: [ Abs: 0.00000  Tot: +0.00000 ]
	SubspaceRotationAdjust: set factor to 0.364
ElecMinimize: Iter:   8  G: -354.933693813129821  |grad|_K:  2.177e-08  alpha:  2.140e-01  linmin:  1.306e-03  t[s]:  14051.62
ElecMinimize: Converged (|Delta G|<1.000000e-07 for 2 iters).
Setting wave functions to eigenvectors of Hamiltonian
Converging empty states (this may take a while): |deigs|: 1.619e-08

Computing DFT-D3 correction:
# coordination-number C 3.301 3.322 3.335 3.333 3.313 3.290 3.325 3.588 3.329 3.314 3.301 3.328 3.303 3.301 3.323 3.608 3.267 3.301 3.320 3.335 3.329 3.303 3.302 3.328 3.335 3.320 3.301 3.268 3.585 3.323 3.301 3.303 3.325 3.301 3.313 3.329 3.606 3.327 3.289 3.313 3.332 3.335 3.323 3.301 2.995
# coordination-number N 3.178 3.179 3.177 3.179
# coordination-number Ti 7.480
# coordination-number O 1.998 1.035
# diagonal-C6 C 24.28 24.06 23.92 23.94 24.15 24.38 24.02 20.42 23.98 24.15 24.27 24.00 24.25 24.28 24.05 20.18 24.58 24.28 24.08 23.92 23.98 24.25 24.26 24.00 23.92 24.08 24.27 24.57 20.46 24.05 24.27 24.25 24.03 24.28 24.15 23.99 20.21 24.01 24.38 24.15 23.95 23.92 24.05 24.28 25.68
# diagonal-C6 N 15.60 15.60 15.60 15.60
# diagonal-C6 Ti 321.59
# diagonal-C6 O 10.41 12.78
EvdW_6 =   -0.039674
EvdW_8 =   -0.031865
Completed 4 of 10 configurations.

Computing DFT-D3 correction:
[...]
disp C   0.000000000000000   0.000000000000000   0.000000000000000
disp C   0.000000000000000   0.000000000000000   0.000000000000000
disp C   0.000000000000000   0.000000000000000   0.000000000000000
disp C   0.000000000000000   0.000000000000000   0.000000000000000
disp C   0.000000000000000   0.000000000000000   0.000000000000000
disp C   0.000000000000000   0.000000000000000   0.000000000000000
disp C   0.000000000000000   0.000000000000000   0.000000000000000
disp C   0.000000000000000   0.000000000000000   0.000000000000000
disp C   0.000000000000000   0.000000000000000   0.000000000000000
disp C   0.000000000000000   0.000000000000000   0.000000000000000
disp C   0.000000000000000   0.000000000000000   0.000000000000000
disp C   0.000000000000000   0.000000000000000   0.000000000000000
disp C   0.000000000000000   0.000000000000000   0.000000000000000
disp C   0.000000000000000   0.000000000000000   0.000000000000000
disp C   0.000000000000000   0.000000000000000   0.000000000000000
disp C   0.005840432816810   0.000791744156928   0.000945135572684
disp N   0.000000000000000   0.000000000000000   0.000000000000000
disp N   0.000000000000000   0.000000000000000   0.000000000000000
disp N   0.000000000000000   0.000000000000000   0.000000000000000
disp N   0.000000000000000   0.000000000000000   0.000000000000000
disp Ti   0.000000000000000   0.000000000000000   0.000000000000000
disp O  -0.000535437215362   0.000531849440057   0.001379086359144
disp O  -0.002071898070522   0.000055126828508   0.000878464226152

Real mode 5:
Frequency: 0.001868 Eh [ 410 cm^-1 ]
Degeneracy: 1 of 1
IR intensity: 0.1811 e^2/amu [ 176.5 km/mol ]
Displacements:
disp C   0.000000000000000   0.000000000000000   0.000000000000000
disp C   0.000000000000000   0.000000000000000   0.000000000000000
disp C   0.000000000000000   0.000000000000000   0.000000000000000
disp C   0.000000000000000   0.000000000000000   0.000000000000000
disp C   0.000000000000000   0.000000000000000   0.000000000000000
disp C   0.000000000000000   0.000000000000000   0.000000000000000
disp C   0.000000000000000   0.000000000000000   0.000000000000000
disp C   0.000000000000000   0.000000000000000   0.000000000000000
disp C   0.000000000000000   0.000000000000000   0.000000000000000
disp C   0.000000000000000   0.000000000000000   0.000000000000000
disp C   0.000000000000000   0.000000000000000   0.000000000000000
disp C   0.000000000000000   0.000000000000000   0.000000000000000
disp C   0.000000000000000   0.000000000000000   0.000000000000000
disp C   0.000000000000000   0.000000000000000   0.000000000000000
disp C   0.000000000000000   0.000000000000000   0.000000000000000
disp C   0.000000000000000   0.000000000000000   0.000000000000000
disp C   0.000000000000000   0.000000000000000   0.000000000000000
disp C   0.000000000000000   0.000000000000000   0.000000000000000
disp C   0.000000000000000   0.000000000000000   0.000000000000000
disp C   0.000000000000000   0.000000000000000   0.000000000000000
disp C   0.000000000000000   0.000000000000000   0.000000000000000
disp C   0.000000000000000   0.000000000000000   0.000000000000000
disp C   0.000000000000000   0.000000000000000   0.000000000000000
disp C   0.000000000000000   0.000000000000000   0.000000000000000
disp C   0.000000000000000   0.000000000000000   0.000000000000000
disp C   0.000000000000000   0.000000000000000   0.000000000000000
disp C   0.000000000000000   0.000000000000000   0.000000000000000
disp C   0.000000000000000   0.000000000000000   0.000000000000000
disp C   0.000000000000000   0.000000000000000   0.000000000000000
disp C   0.000000000000000   0.000000000000000   0.000000000000000
disp C   0.000000000000000   0.000000000000000   0.000000000000000
disp C   0.000000000000000   0.000000000000000   0.000000000000000
disp C   0.000000000000000   0.000000000000000   0.000000000000000
disp C   0.000000000000000   0.000000000000000   0.000000000000000
disp C   0.000000000000000   0.000000000000000   0.000000000000000
disp C   0.000000000000000   0.000000000000000   0.000000000000000
disp C   0.000000000000000   0.000000000000000   0.000000000000000
disp C   0.000000000000000   0.000000000000000   0.000000000000000
disp C   0.000000000000000   0.000000000000000   0.000000000000000
disp C   0.000000000000000   0.000000000000000   0.000000000000000
disp C   0.000000000000000   0.000000000000000   0.000000000000000
disp C   0.000000000000000   0.000000000000000   0.000000000000000
disp C   0.000000000000000   0.000000000000000   0.000000000000000
disp C   0.000000000000000   0.000000000000000   0.000000000000000
disp C  -0.002158678887363   0.001858433364160   0.002589375183895
disp N   0.000000000000000   0.000000000000000   0.000000000000000
disp N   0.000000000000000   0.000000000000000   0.000000000000000
disp N   0.000000000000000   0.000000000000000   0.000000000000000
disp N   0.000000000000000   0.000000000000000   0.000000000000000
disp Ti   0.000000000000000   0.000000000000000   0.000000000000000
disp O  -0.000387294839300   0.001595724719781   0.003694688245891
disp O   0.000845808047435   0.000677004385779   0.002375341067200

Real mode 6:
Frequency: 0.003281 Eh [ 720 cm^-1 ]
Degeneracy: 1 of 1
IR intensity: 0.3412 e^2/amu [ 332.6 km/mol ]
Displacements:
disp C   0.000000000000000   0.000000000000000   0.000000000000000
disp C   0.000000000000000   0.000000000000000   0.000000000000000
disp C   0.000000000000000   0.000000000000000   0.000000000000000
disp C   0.000000000000000   0.000000000000000   0.000000000000000
disp C   0.000000000000000   0.000000000000000   0.000000000000000
disp C   0.000000000000000   0.000000000000000   0.000000000000000
disp C   0.000000000000000   0.000000000000000   0.000000000000000
disp C   0.000000000000000   0.000000000000000   0.000000000000000
disp C   0.000000000000000   0.000000000000000   0.000000000000000
disp C   0.000000000000000   0.000000000000000   0.000000000000000
disp C   0.000000000000000   0.000000000000000   0.000000000000000
disp C   0.000000000000000   0.000000000000000   0.000000000000000
disp C   0.000000000000000   0.000000000000000   0.000000000000000
disp C   0.000000000000000   0.000000000000000   0.000000000000000
disp C   0.000000000000000   0.000000000000000   0.000000000000000
disp C   0.000000000000000   0.000000000000000   0.000000000000000
disp C   0.000000000000000   0.000000000000000   0.000000000000000
disp C   0.000000000000000   0.000000000000000   0.000000000000000
disp C   0.000000000000000   0.000000000000000   0.000000000000000
disp C   0.000000000000000   0.000000000000000   0.000000000000000
disp C   0.000000000000000   0.000000000000000   0.000000000000000
disp C   0.000000000000000   0.000000000000000   0.000000000000000
disp C   0.000000000000000   0.000000000000000   0.000000000000000
disp C   0.000000000000000   0.000000000000000   0.000000000000000
disp C   0.000000000000000   0.000000000000000   0.000000000000000
disp C   0.000000000000000   0.000000000000000   0.000000000000000
disp C   0.000000000000000   0.000000000000000   0.000000000000000
disp C   0.000000000000000   0.000000000000000   0.000000000000000
disp C   0.000000000000000   0.000000000000000   0.000000000000000
disp C   0.000000000000000   0.000000000000000   0.000000000000000
disp C   0.000000000000000   0.000000000000000   0.000000000000000
disp C   0.000000000000000   0.000000000000000   0.000000000000000
disp C   0.000000000000000   0.000000000000000   0.000000000000000
disp C   0.000000000000000   0.000000000000000   0.000000000000000
disp C   0.000000000000000   0.000000000000000   0.000000000000000
disp C   0.000000000000000   0.000000000000000   0.000000000000000
disp C   0.000000000000000   0.000000000000000   0.000000000000000
disp C   0.000000000000000   0.000000000000000   0.000000000000000
disp C   0.000000000000000   0.000000000000000   0.000000000000000
disp C   0.000000000000000   0.000000000000000   0.000000000000000
disp C   0.000000000000000   0.000000000000000   0.000000000000000
disp C   0.000000000000000   0.000000000000000   0.000000000000000
disp C   0.000000000000000   0.000000000000000   0.000000000000000
disp C   0.000000000000000   0.000000000000000   0.000000000000000
disp C   0.000103735335353  -0.001105526823646  -0.003046027808838
disp N   0.000000000000000   0.000000000000000   0.000000000000000
disp N   0.000000000000000   0.000000000000000   0.000000000000000
disp N   0.000000000000000   0.000000000000000   0.000000000000000
disp N   0.000000000000000   0.000000000000000   0.000000000000000
disp Ti   0.000000000000000   0.000000000000000   0.000000000000000
disp O   0.000210551514746  -0.001740588782135   0.003347605570331
disp O  -0.000032679554472   0.003063633005295  -0.001652036041703

Real mode 7:
Frequency: 0.004869 Eh [ 1069 cm^-1 ]
Degeneracy: 1 of 1
IR intensity: 0.1237 e^2/amu [ 120.6 km/mol ]
Displacements:
disp C   0.000000000000000   0.000000000000000   0.000000000000000
disp C   0.000000000000000   0.000000000000000   0.000000000000000
disp C   0.000000000000000   0.000000000000000   0.000000000000000
disp C   0.000000000000000   0.000000000000000   0.000000000000000
disp C   0.000000000000000   0.000000000000000   0.000000000000000
disp C   0.000000000000000   0.000000000000000   0.000000000000000
disp C   0.000000000000000   0.000000000000000   0.000000000000000
disp C   0.000000000000000   0.000000000000000   0.000000000000000
disp C   0.000000000000000   0.000000000000000   0.000000000000000
disp C   0.000000000000000   0.000000000000000   0.000000000000000
disp C   0.000000000000000   0.000000000000000   0.000000000000000
disp C   0.000000000000000   0.000000000000000   0.000000000000000
disp C   0.000000000000000   0.000000000000000   0.000000000000000
disp C   0.000000000000000   0.000000000000000   0.000000000000000
disp C   0.000000000000000   0.000000000000000   0.000000000000000
disp C   0.000000000000000   0.000000000000000   0.000000000000000
disp C   0.000000000000000   0.000000000000000   0.000000000000000
disp C   0.000000000000000   0.000000000000000   0.000000000000000
disp C   0.000000000000000   0.000000000000000   0.000000000000000
disp C   0.000000000000000   0.000000000000000   0.000000000000000
disp C   0.000000000000000   0.000000000000000   0.000000000000000
disp C   0.000000000000000   0.000000000000000   0.000000000000000
disp C   0.000000000000000   0.000000000000000   0.000000000000000
disp C   0.000000000000000   0.000000000000000   0.000000000000000
disp C   0.000000000000000   0.000000000000000   0.000000000000000
disp C   0.000000000000000   0.000000000000000   0.000000000000000
disp C   0.000000000000000   0.000000000000000   0.000000000000000
disp C   0.000000000000000   0.000000000000000   0.000000000000000
disp C   0.000000000000000   0.000000000000000   0.000000000000000
disp C   0.000000000000000   0.000000000000000   0.000000000000000
disp C   0.000000000000000   0.000000000000000   0.000000000000000
disp C   0.000000000000000   0.000000000000000   0.000000000000000
disp C   0.000000000000000   0.000000000000000   0.000000000000000
disp C   0.000000000000000   0.000000000000000   0.000000000000000
disp C   0.000000000000000   0.000000000000000   0.000000000000000
disp C   0.000000000000000   0.000000000000000   0.000000000000000
disp C   0.000000000000000   0.000000000000000   0.000000000000000
disp C   0.000000000000000   0.000000000000000   0.000000000000000
disp C   0.000000000000000   0.000000000000000   0.000000000000000
disp C   0.000000000000000   0.000000000000000   0.000000000000000
disp C   0.000000000000000   0.000000000000000   0.000000000000000
disp C   0.000000000000000   0.000000000000000   0.000000000000000
disp C   0.000000000000000   0.000000000000000   0.000000000000000
disp C   0.000000000000000   0.000000000000000   0.000000000000000
disp C  -0.000104804039883   0.004749099735279   0.001436685208458
disp N   0.000000000000000   0.000000000000000   0.000000000000000
disp N   0.000000000000000   0.000000000000000   0.000000000000000
disp N   0.000000000000000   0.000000000000000   0.000000000000000
disp N   0.000000000000000   0.000000000000000   0.000000000000000
disp Ti   0.000000000000000   0.000000000000000   0.000000000000000
disp O   0.000056750981427  -0.003858886612051  -0.000409879768820
disp O   0.000001309293181   0.000158481515350  -0.000843097032126

Real mode 8:
Frequency: 0.007126 Eh [ 1564 cm^-1 ]
Degeneracy: 1 of 1
IR intensity: 1.3305 e^2/amu [ 1297.1 km/mol ]
Displacements:
disp C   0.000000000000000   0.000000000000000   0.000000000000000
disp C   0.000000000000000   0.000000000000000   0.000000000000000
disp C   0.000000000000000   0.000000000000000   0.000000000000000
disp C   0.000000000000000   0.000000000000000   0.000000000000000
disp C   0.000000000000000   0.000000000000000   0.000000000000000
disp C   0.000000000000000   0.000000000000000   0.000000000000000
disp C   0.000000000000000   0.000000000000000   0.000000000000000
disp C   0.000000000000000   0.000000000000000   0.000000000000000
disp C   0.000000000000000   0.000000000000000   0.000000000000000
disp C   0.000000000000000   0.000000000000000   0.000000000000000
disp C   0.000000000000000   0.000000000000000   0.000000000000000
disp C   0.000000000000000   0.000000000000000   0.000000000000000
disp C   0.000000000000000   0.000000000000000   0.000000000000000
disp C   0.000000000000000   0.000000000000000   0.000000000000000
disp C   0.000000000000000   0.000000000000000   0.000000000000000
disp C   0.000000000000000   0.000000000000000   0.000000000000000
disp C   0.000000000000000   0.000000000000000   0.000000000000000
disp C   0.000000000000000   0.000000000000000   0.000000000000000
disp C   0.000000000000000   0.000000000000000   0.000000000000000
disp C   0.000000000000000   0.000000000000000   0.000000000000000
disp C   0.000000000000000   0.000000000000000   0.000000000000000
disp C   0.000000000000000   0.000000000000000   0.000000000000000
disp C   0.000000000000000   0.000000000000000   0.000000000000000
disp C   0.000000000000000   0.000000000000000   0.000000000000000
disp C   0.000000000000000   0.000000000000000   0.000000000000000
disp C   0.000000000000000   0.000000000000000   0.000000000000000
disp C   0.000000000000000   0.000000000000000   0.000000000000000
disp C   0.000000000000000   0.000000000000000   0.000000000000000
disp C   0.000000000000000   0.000000000000000   0.000000000000000
disp C   0.000000000000000   0.000000000000000   0.000000000000000
disp C   0.000000000000000   0.000000000000000   0.000000000000000
disp C   0.000000000000000   0.000000000000000   0.000000000000000
disp C   0.000000000000000   0.000000000000000   0.000000000000000
disp C   0.000000000000000   0.000000000000000   0.000000000000000
disp C   0.000000000000000   0.000000000000000   0.000000000000000
disp C   0.000000000000000   0.000000000000000   0.000000000000000
disp C   0.000000000000000   0.000000000000000   0.000000000000000
disp C   0.000000000000000   0.000000000000000   0.000000000000000
disp C   0.000000000000000   0.000000000000000   0.000000000000000
disp C   0.000000000000000   0.000000000000000   0.000000000000000
disp C   0.000000000000000   0.000000000000000   0.000000000000000
disp C   0.000000000000000   0.000000000000000   0.000000000000000
disp C   0.000000000000000   0.000000000000000   0.000000000000000
disp C   0.000000000000000   0.000000000000000   0.000000000000000
disp C  -0.000072892571792   0.002225039977039  -0.004974073650446
disp N   0.000000000000000   0.000000000000000   0.000000000000000
disp N   0.000000000000000   0.000000000000000   0.000000000000000
disp N   0.000000000000000   0.000000000000000   0.000000000000000
disp N   0.000000000000000   0.000000000000000   0.000000000000000
disp Ti   0.000000000000000   0.000000000000000   0.000000000000000
disp O  -0.000012469605728  -0.000079414593455   0.000041110332621
disp O   0.000068990362047  -0.001519521208323   0.003109867929620

Vibrational free energy components at T = 298 K:
	ZPE:          0.010735
	Evib:         0.013265
	TSvib:        0.004689
	Avib:         0.008576


Dumping 'jdft.n_up' ... done
Dumping 'jdft.n_dn' ... done
Dumping 'jdft.tau_up' ... done
Dumping 'jdft.tau_dn' ... done
Dumping 'jdft.eigenvals' ... done
Dumping 'jdft.eigStats' ... 
	eMin: -2.281680 at state 9 ( [ +0.000000 +0.000000 +0.000000 ] spin -1 )
	HOMO: -0.149492 at state 4 ( [ +0.333333 +0.333333 +0.000000 ] spin 1 )
	mu  : -0.145500
	LUMO: -0.134528 at state 2 ( [ +0.000000 -0.333333 +0.000000 ] spin 1 )
	eMax: +0.018380 at state 0 ( [ +0.000000 +0.000000 +0.000000 ] spin 1 )
	HOMO-LUMO gap: +0.014964
	Optical gap  : +0.017081 at state 17 ( [ -0.333333 -0.333333 +0.000000 ] spin -1 )
Dumping 'jdft.kPts' ... done
Dumping 'jdft.dosUp' ... done.
Dumping 'jdft.dosDn' ... done.
End date and time: Thu Nov 10 01:12:58 2022  (Duration: 0-6:14:20.50)
Done!

PROFILER:             augmentDensityGrid     0.724609 +/-     0.784794 s, 1284 calls,    930.397646 s total
PROFILER:         augmentDensityGridGrad     0.548654 +/-     0.623236 s,  728 calls,    399.419764 s total
PROFILER:        augmentDensitySpherical     0.000464 +/-     0.000557 s, 1284 calls,      0.595207 s total
PROFILER:    augmentDensitySphericalGrad     0.000468 +/-     0.000587 s,  952 calls,      0.445092 s total
PROFILER:                 augmentOverlap     1.674224 +/-     2.191314 s, 2504 calls,   4192.255747 s total
PROFILER:        ColumnBundle::randomize     0.004908 +/-     0.000000 s,    1 calls,      0.004908 s total
PROFILER:                     diagouterI    16.261884 +/-     3.394468 s,  324 calls,   5268.850573 s total
PROFILER:              EdensityAndVscloc     5.614131 +/-     4.210414 s,  322 calls,   1807.750304 s total
PROFILER:                     EnlAndGrad     0.001392 +/-     0.001935 s, 1296 calls,      1.804351 s total
PROFILER:            ExCorrCommunication     0.050891 +/-     0.057063 s, 2044 calls,    104.021466 s total
PROFILER:               ExCorrFunctional     0.022372 +/-     0.004286 s,  353 calls,      7.897420 s total
PROFILER:                    ExCorrTotal     0.551518 +/-     0.130181 s,  353 calls,    194.685856 s total
PROFILER:                   Idag_DiagV_I    27.763285 +/-    11.229205 s,  228 calls,   6330.029080 s total
PROFILER:                    initWeights     1.952856 +/-     0.000000 s,    1 calls,      1.952856 s total
PROFILER:                    inv(matrix)     0.001931 +/-     0.000932 s,  256 calls,      0.494423 s total
PROFILER:            matrix::diagonalize     0.008378 +/-     0.005407 s,  534 calls,      4.473927 s total
PROFILER:                    matrix::set     0.000002 +/-     0.000003 s, 29658 calls,      0.053849 s total
PROFILER:            orthoMatrix(matrix)     0.001321 +/-     0.000835 s,  303 calls,      0.400119 s total
PROFILER:     RadialFunctionR::transform     0.004346 +/-     0.021312 s,  141 calls,      0.612763 s total
PROFILER:                    reduceKmesh     0.000000 +/-     0.000000 s,    1 calls,      0.000000 s total
PROFILER:   VanDerWaalsD3::energyAndGrad     0.033351 +/-     0.005529 s,   21 calls,      0.700362 s total
PROFILER:               WavefunctionDrag    26.304482 +/-     0.352608 s,   10 calls,    263.044819 s total
PROFILER:                            Y*M     0.744552 +/-     0.862824 s, 4727 calls,   3519.498507 s total
PROFILER:                          Y1^Y2     0.751059 +/-     0.874210 s, 3400 calls,   2553.600390 s total

MEMUSAGE:                   ColumnBundle     1.333771 GB
MEMUSAGE:        complexScalarFieldTilde     0.049438 GB
MEMUSAGE:                    IndexArrays     0.023178 GB
MEMUSAGE:                         matrix     0.020675 GB
MEMUSAGE:                           misc     0.050872 GB
MEMUSAGE:                    ScalarField     0.395508 GB
MEMUSAGE:               ScalarFieldTilde     0.262436 GB
MEMUSAGE:                          Total     1.650425 GB
