
*************** JDFTx 1.7.0 (git hash 5f12716a) ***************

Start date and time: Tue Sep 20 21:58:12 2022
Executable /home/nisi6161/jdftx_alpine/build/jdftx with command-line: -i in
Running on hosts (process indices):  c3cpu-a5-u19-3.rc.int.colorado.edu (0-17)
Divided in process groups (process indices):  0 (0)  1 (1)  2 (2)  3 (3)  4 (4)  5 (5)  6 (6)  7 (7)  8 (8)  9 (9)  10 (10)  11 (11)  12 (12)  13 (13)  14 (14)  15 (15)  16 (16)  17 (17)
Resource initialization completed at t[s]:      0.00
Run totals: 18 processes, 64 threads, 0 GPUs


Input parsed successfully to the following command list (including defaults):

basis kpoint-dependent
converge-empty-states yes
coords-type Cartesian
core-overlap-check none
coulomb-interaction Periodic
davidson-band-ratio 1.1
density-of-states Etol 1.000000e-06 Esigma 1.000000e-03 \
		Complete \
	Total \
	OrthoOrbital C 1   s \
	OrthoOrbital C 1   p \
	OrthoOrbital C 1   px \
	OrthoOrbital C 1   py \
	OrthoOrbital C 1   pz \
	OrthoOrbital C 2   s \
	OrthoOrbital C 2   p \
	OrthoOrbital C 2   px \
	OrthoOrbital C 2   py \
	OrthoOrbital C 2   pz \
	OrthoOrbital C 3   s \
	OrthoOrbital C 3   p \
	OrthoOrbital C 3   px \
	OrthoOrbital C 3   py \
	OrthoOrbital C 3   pz \
	OrthoOrbital C 4   s \
	OrthoOrbital C 4   p \
	OrthoOrbital C 4   px \
	OrthoOrbital C 4   py \
	OrthoOrbital C 4   pz \
	OrthoOrbital C 5   s \
	OrthoOrbital C 5   p \
	OrthoOrbital C 5   px \
	OrthoOrbital C 5   py \
	OrthoOrbital C 5   pz \
	OrthoOrbital C 6   s \
	OrthoOrbital C 6   p \
	OrthoOrbital C 6   px \
	OrthoOrbital C 6   py \
	OrthoOrbital C 6   pz \
	OrthoOrbital C 7   s \
	OrthoOrbital C 7   p \
	OrthoOrbital C 7   px \
	OrthoOrbital C 7   py \
	OrthoOrbital C 7   pz \
	OrthoOrbital C 8   s \
	OrthoOrbital C 8   p \
	OrthoOrbital C 8   px \
	OrthoOrbital C 8   py \
	OrthoOrbital C 8   pz \
	OrthoOrbital C 9   s \
	OrthoOrbital C 9   p \
	OrthoOrbital C 9   px \
	OrthoOrbital C 9   py \
	OrthoOrbital C 9   pz \
	OrthoOrbital C 10   s \
	OrthoOrbital C 10   p \
	OrthoOrbital C 10   px \
	OrthoOrbital C 10   py \
	OrthoOrbital C 10   pz \
	OrthoOrbital C 11   s \
	OrthoOrbital C 11   p \
	OrthoOrbital C 11   px \
	OrthoOrbital C 11   py \
	OrthoOrbital C 11   pz \
	OrthoOrbital C 12   s \
	OrthoOrbital C 12   p \
	OrthoOrbital C 12   px \
	OrthoOrbital C 12   py \
	OrthoOrbital C 12   pz \
	OrthoOrbital C 13   s \
	OrthoOrbital C 13   p \
	OrthoOrbital C 13   px \
	OrthoOrbital C 13   py \
	OrthoOrbital C 13   pz \
	OrthoOrbital C 14   s \
	OrthoOrbital C 14   p \
	OrthoOrbital C 14   px \
	OrthoOrbital C 14   py \
	OrthoOrbital C 14   pz \
	OrthoOrbital C 15   s \
	OrthoOrbital C 15   p \
	OrthoOrbital C 15   px \
	OrthoOrbital C 15   py \
	OrthoOrbital C 15   pz \
	OrthoOrbital C 16   s \
	OrthoOrbital C 16   p \
	OrthoOrbital C 16   px \
	OrthoOrbital C 16   py \
	OrthoOrbital C 16   pz \
	OrthoOrbital C 17   s \
	OrthoOrbital C 17   p \
	OrthoOrbital C 17   px \
	OrthoOrbital C 17   py \
	OrthoOrbital C 17   pz \
	OrthoOrbital C 18   s \
	OrthoOrbital C 18   p \
	OrthoOrbital C 18   px \
	OrthoOrbital C 18   py \
	OrthoOrbital C 18   pz \
	OrthoOrbital C 19   s \
	OrthoOrbital C 19   p \
	OrthoOrbital C 19   px \
	OrthoOrbital C 19   py \
	OrthoOrbital C 19   pz \
	OrthoOrbital C 20   s \
	OrthoOrbital C 20   p \
	OrthoOrbital C 20   px \
	OrthoOrbital C 20   py \
	OrthoOrbital C 20   pz \
	OrthoOrbital C 21   s \
	OrthoOrbital C 21   p \
	OrthoOrbital C 21   px \
	OrthoOrbital C 21   py \
	OrthoOrbital C 21   pz \
	OrthoOrbital C 22   s \
	OrthoOrbital C 22   p \
	OrthoOrbital C 22   px \
	OrthoOrbital C 22   py \
	OrthoOrbital C 22   pz \
	OrthoOrbital C 23   s \
	OrthoOrbital C 23   p \
	OrthoOrbital C 23   px \
	OrthoOrbital C 23   py \
	OrthoOrbital C 23   pz \
	OrthoOrbital C 24   s \
	OrthoOrbital C 24   p \
	OrthoOrbital C 24   px \
	OrthoOrbital C 24   py \
	OrthoOrbital C 24   pz \
	OrthoOrbital C 25   s \
	OrthoOrbital C 25   p \
	OrthoOrbital C 25   px \
	OrthoOrbital C 25   py \
	OrthoOrbital C 25   pz \
	OrthoOrbital C 26   s \
	OrthoOrbital C 26   p \
	OrthoOrbital C 26   px \
	OrthoOrbital C 26   py \
	OrthoOrbital C 26   pz \
	OrthoOrbital C 27   s \
	OrthoOrbital C 27   p \
	OrthoOrbital C 27   px \
	OrthoOrbital C 27   py \
	OrthoOrbital C 27   pz \
	OrthoOrbital C 28   s \
	OrthoOrbital C 28   p \
	OrthoOrbital C 28   px \
	OrthoOrbital C 28   py \
	OrthoOrbital C 28   pz \
	OrthoOrbital C 29   s \
	OrthoOrbital C 29   p \
	OrthoOrbital C 29   px \
	OrthoOrbital C 29   py \
	OrthoOrbital C 29   pz \
	OrthoOrbital C 30   s \
	OrthoOrbital C 30   p \
	OrthoOrbital C 30   px \
	OrthoOrbital C 30   py \
	OrthoOrbital C 30   pz \
	OrthoOrbital C 31   s \
	OrthoOrbital C 31   p \
	OrthoOrbital C 31   px \
	OrthoOrbital C 31   py \
	OrthoOrbital C 31   pz \
	OrthoOrbital C 32   s \
	OrthoOrbital C 32   p \
	OrthoOrbital C 32   px \
	OrthoOrbital C 32   py \
	OrthoOrbital C 32   pz \
	OrthoOrbital C 33   s \
	OrthoOrbital C 33   p \
	OrthoOrbital C 33   px \
	OrthoOrbital C 33   py \
	OrthoOrbital C 33   pz \
	OrthoOrbital C 34   s \
	OrthoOrbital C 34   p \
	OrthoOrbital C 34   px \
	OrthoOrbital C 34   py \
	OrthoOrbital C 34   pz \
	OrthoOrbital C 35   s \
	OrthoOrbital C 35   p \
	OrthoOrbital C 35   px \
	OrthoOrbital C 35   py \
	OrthoOrbital C 35   pz \
	OrthoOrbital C 36   s \
	OrthoOrbital C 36   p \
	OrthoOrbital C 36   px \
	OrthoOrbital C 36   py \
	OrthoOrbital C 36   pz \
	OrthoOrbital C 37   s \
	OrthoOrbital C 37   p \
	OrthoOrbital C 37   px \
	OrthoOrbital C 37   py \
	OrthoOrbital C 37   pz \
	OrthoOrbital C 38   s \
	OrthoOrbital C 38   p \
	OrthoOrbital C 38   px \
	OrthoOrbital C 38   py \
	OrthoOrbital C 38   pz \
	OrthoOrbital C 39   s \
	OrthoOrbital C 39   p \
	OrthoOrbital C 39   px \
	OrthoOrbital C 39   py \
	OrthoOrbital C 39   pz \
	OrthoOrbital C 40   s \
	OrthoOrbital C 40   p \
	OrthoOrbital C 40   px \
	OrthoOrbital C 40   py \
	OrthoOrbital C 40   pz \
	OrthoOrbital C 41   s \
	OrthoOrbital C 41   p \
	OrthoOrbital C 41   px \
	OrthoOrbital C 41   py \
	OrthoOrbital C 41   pz \
	OrthoOrbital C 42   s \
	OrthoOrbital C 42   p \
	OrthoOrbital C 42   px \
	OrthoOrbital C 42   py \
	OrthoOrbital C 42   pz \
	OrthoOrbital C 43   s \
	OrthoOrbital C 43   p \
	OrthoOrbital C 43   px \
	OrthoOrbital C 43   py \
	OrthoOrbital C 43   pz \
	OrthoOrbital C 44   s \
	OrthoOrbital C 44   p \
	OrthoOrbital C 44   px \
	OrthoOrbital C 44   py \
	OrthoOrbital C 44   pz \
	OrthoOrbital C 45   s \
	OrthoOrbital C 45   p \
	OrthoOrbital C 45   px \
	OrthoOrbital C 45   py \
	OrthoOrbital C 45   pz \
	OrthoOrbital N 1   s \
	OrthoOrbital N 1   p \
	OrthoOrbital N 1   px \
	OrthoOrbital N 1   py \
	OrthoOrbital N 1   pz \
	OrthoOrbital N 2   s \
	OrthoOrbital N 2   p \
	OrthoOrbital N 2   px \
	OrthoOrbital N 2   py \
	OrthoOrbital N 2   pz \
	OrthoOrbital N 3   s \
	OrthoOrbital N 3   p \
	OrthoOrbital N 3   px \
	OrthoOrbital N 3   py \
	OrthoOrbital N 3   pz \
	OrthoOrbital N 4   s \
	OrthoOrbital N 4   p \
	OrthoOrbital N 4   px \
	OrthoOrbital N 4   py \
	OrthoOrbital N 4   pz \
	OrthoOrbital Ti 1   s \
	OrthoOrbital Ti 1   p \
	OrthoOrbital Ti 1   px \
	OrthoOrbital Ti 1   py \
	OrthoOrbital Ti 1   pz \
	OrthoOrbital Ti 1   d \
	OrthoOrbital Ti 1   dxy \
	OrthoOrbital Ti 1   dyz \
	OrthoOrbital Ti 1   dz2 \
	OrthoOrbital Ti 1   dxz \
	OrthoOrbital Ti 1   dx2-y2 \
	OrthoOrbital O 1   s \
	OrthoOrbital O 1   p \
	OrthoOrbital O 1   px \
	OrthoOrbital O 1   py \
	OrthoOrbital O 1   pz \
	OrthoOrbital O 2   s \
	OrthoOrbital O 2   p \
	OrthoOrbital O 2   px \
	OrthoOrbital O 2   py \
	OrthoOrbital O 2   pz \
	OrthoOrbital O 3   s \
	OrthoOrbital O 3   p \
	OrthoOrbital O 3   px \
	OrthoOrbital O 3   py \
	OrthoOrbital O 3   pz \
	OrthoOrbital H 1   s \
	OrthoOrbital H 2   s \
	OrthoOrbital H 3   s
dump End ElecDensity KEdensity BandEigs EigStats RhoAtom DOS Kpoints
dump Ionic State IonicPositions Lattice EigStats Ecomponents
dump 
dump 
dump 
dump 
dump 
dump 
dump 
dump 
dump-name jdft.$VAR
elec-cutoff 20
elec-eigen-algo Davidson
elec-ex-corr gga-PBE
elec-initial-magnetization 0.000000 no
elec-n-bands 140
elec-smearing Fermi 0.001
electronic-minimize  \
	dirUpdateScheme      FletcherReeves \
	linminMethod         DirUpdateRecommended \
	nIterations          100 \
	history              15 \
	knormThreshold       0 \
	energyDiffThreshold  1e-07 \
	nEnergyDiff          2 \
	alphaTstart          1 \
	alphaTmin            1e-10 \
	updateTestStepSize   yes \
	alphaTreduceFactor   0.1 \
	alphaTincreaseFactor 3 \
	nAlphaAdjustMax      3 \
	wolfeEnergy          0.0001 \
	wolfeGradient        0.9 \
	fdTest               no
exchange-regularization WignerSeitzTruncated
fluid LinearPCM 298.000000 1.013250
fluid-anion F- 0.5 MeanFieldLJ \
	epsBulk 1 \
	pMol 0 \
	epsInf 1 \
	Pvap 0 \
	sigmaBulk 0 \
	Rvdw 2.24877 \
	Res 0 \
	tauNuc 343133
fluid-cation Na+ 0.5 MeanFieldLJ \
	epsBulk 1 \
	pMol 0 \
	epsInf 1 \
	Pvap 0 \
	sigmaBulk 0 \
	Rvdw 2.19208 \
	Res 0 \
	tauNuc 343133
fluid-ex-corr lda-TF lda-PZ
fluid-gummel-loop 10 1.000000e-05
fluid-minimize  \
	dirUpdateScheme      PolakRibiere \
	linminMethod         DirUpdateRecommended \
	nIterations          400 \
	history              15 \
	knormThreshold       1e-11 \
	energyDiffThreshold  0 \
	nEnergyDiff          2 \
	alphaTstart          1 \
	alphaTmin            1e-10 \
	updateTestStepSize   yes \
	alphaTreduceFactor   0.1 \
	alphaTincreaseFactor 3 \
	nAlphaAdjustMax      6 \
	wolfeEnergy          0.0001 \
	wolfeGradient        0.9 \
	fdTest               no
fluid-solvent H2O 55.338 ScalarEOS \
	epsBulk 78.4 \
	pMol 0.92466 \
	epsInf 1.77 \
	Pvap 1.06736e-10 \
	sigmaBulk 4.62e-05 \
	Rvdw 2.61727 \
	Res 1.42 \
	tauNuc 343133 \
	poleEl 15 7 1
forces-output-coords Positions
ion C   0.002461000000000   0.090659000000000   0.035211000000000 0
ion C  21.041053000000002   4.043435000000001   0.055195000000000 0
ion C  18.693049999999999   8.044991000000001  43.242557000000005 0
ion C  -7.046992000000000  12.045087000000002  43.237972000000006 0
ion C  -9.373006000000002  16.055339000000004   0.014058000000000 0
ion C   4.682712000000001   0.178006000000000   0.056017000000000 0
ion C   2.288986000000000   4.209373000000001   0.200839000000000 0
ion C  -0.131572000000000   8.023855000000001   0.205641000000000 0
ion C  -2.427594000000003  12.026528000000004   0.070075000000000 0
ion C  -4.719897000000002  16.054004000000003   0.027554000000000 0
ion C   9.378058000000001   0.064519000000000   0.004196000000000 0
ion C   7.082672000000001   4.155137000000001   0.027684000000000 0
ion C  -0.019167000000001  15.949339000000004   0.097932000000000 0
ion C   2.341992000000001  19.929452999999999   0.025651000000000 0
ion C  11.753337999999998   4.028723000000001  43.231787000000004 0
ion C   9.459151000000002   8.022460000000001   0.013712000000000 0
ion C   4.669438000000001  15.840057000000002   0.136776000000000 0
ion C   6.994318000000000  19.941245000000002   0.021412000000000 0
ion C  16.396037000000000   4.017783000000001  43.242644000000006 0
ion C  14.086559999999999   8.039380000000001  43.239443000000009 0
ion C  11.771976000000002  12.042837000000002   0.027468000000000 0
ion C   9.376505000000002  15.996794000000001   0.009170000000000 0
ion C  -0.013639000000000   2.774595000000000   0.087681000000000 0
ion C  -2.429311000000000   6.696097000000001   0.054892000000000 0
ion C  -4.742977000000000  10.694367000000002  43.248527000000010 0
ion C  -7.046983000000002  14.717903000000003   0.006834000000000 0
ion C  -9.375213000000002  18.744274000000004   0.039104000000000 0
ion C   4.679148000000000   2.895589000000001   0.114846000000000 0
ion C  -0.128425000000000  10.699586000000004   0.219396000000000 0
ion C  -2.400585000000001  14.697889000000004   0.071286000000000 0
ion C  -4.721467000000001  18.738989000000004   0.025391000000000 0
ion C   9.388293000000001   2.743428000000001  43.233993000000005 0
ion C   2.286725999999998  14.518199000000005   0.222813000000000 0
ion C  -0.009969000000000  18.634632000000003   0.031577000000000 0
ion C  14.073209000000004   2.676200000000000  43.243639000000009 0
ion C  11.777767000000001   6.702715000000001  43.252333000000007 0
ion C   9.456739999999996  10.717958000000003   0.053205000000000 0
ion C   7.072538000000000  14.585058000000004   0.084826000000000 0
ion C   4.667830000000002  18.558540000000001   0.054892000000000 0
ion C  18.724167000000001   2.684459000000001   0.012631000000000 0
ion C  16.391851000000003   6.691195000000001  43.226033000000008 0
ion C  14.084496000000001  10.711297000000002  43.247272000000009 0
ion C  11.745595000000000  14.717269000000003   0.014967000000000 0
ion C   9.361956000000001  18.675664000000005   0.012025000000000 0
ion C   4.440935000000001   9.173762000000002   5.548314000000001 0
ion N   2.171711999999999  11.911252000000003   0.445280000000000 0
ion N   7.176168999999998  11.997751000000003   0.180898000000000 0
ion N   2.159894000000000   6.808552000000001   0.405225000000000 0
ion N   7.186338000000001   6.738493000000001   0.048880000000000 0
ion Ti   4.884646000000001   9.336981000000000   1.565143000000000 0
ion O   3.917090000000000  10.939130000000000   7.519591000000002 0
ion O   4.926117000000001   7.016948000000001   6.249845000000001 0
ion O   2.593974999999999  14.992288000000006   6.118000000000001 1
ion H   3.296634999999999  12.545077000000001   6.785099000000001 0
ion H   2.436468000000000  16.627978000000002   6.980185000000001 1
ion H   1.254177000000000  13.961216000000004   6.893456000000001 1
ion-species /projects/musgravc/apps/jdftx-1.6.0/build/pseudopotentials/GBRV_v1.5/$ID_pbe_v1.uspp
ion-species /projects/musgravc/apps/jdftx-1.6.0/build/pseudopotentials/GBRV_v1.5/$ID_pbe_v1.2.uspp
ion-species /projects/musgravc/apps/jdftx-1.6.0/build/pseudopotentials/GBRV_v1.5/$ID_pbe_v1.4.uspp
ion-species /projects/musgravc/apps/jdftx-1.6.0/build/pseudopotentials/GBRV_v1.5/$ID_pbe_v1.5.uspp
ion-width Ecut
ionic-minimize  \
	dirUpdateScheme      L-BFGS \
	linminMethod         DirUpdateRecommended \
	nIterations          100 \
	history              15 \
	knormThreshold       0.0001 \
	energyDiffThreshold  0.0001 \
	nEnergyDiff          2 \
	alphaTstart          1 \
	alphaTmin            1e-10 \
	updateTestStepSize   yes \
	alphaTreduceFactor   0.1 \
	alphaTincreaseFactor 3 \
	nAlphaAdjustMax      3 \
	wolfeEnergy          0.0001 \
	wolfeGradient        0.9 \
	fdTest               no
kpoint   0.000000000000   0.000000000000   0.000000000000  1.00000000000000
kpoint-folding 3 3 1 
latt-move-scale 0 0 0
latt-scale 1 1 1 
lattice  \
	  23.436261999999999  -11.733459000000000    0.000000000000000  \
	   0.017994000000000   19.941849000000001    0.000000000000000  \
	   0.000000000000000    0.000000000000000   43.256312999999999 
lattice-minimize  \
	dirUpdateScheme      L-BFGS \
	linminMethod         DirUpdateRecommended \
	nIterations          0 \
	history              15 \
	knormThreshold       0 \
	energyDiffThreshold  1e-06 \
	nEnergyDiff          2 \
	alphaTstart          1 \
	alphaTmin            1e-10 \
	updateTestStepSize   yes \
	alphaTreduceFactor   0.1 \
	alphaTincreaseFactor 3 \
	nAlphaAdjustMax      3 \
	wolfeEnergy          0.0001 \
	wolfeGradient        0.9 \
	fdTest               no
lcao-params 30 1e-06 0.001
pcm-variant CANDLE
spintype z-spin
subspace-rotation-factor 1 yes
symmetries none
symmetry-threshold 0.0001
target-mu -0.1272 no

van-der-waals D3


Applied RMS atom displacement 0 bohrs to make symmetries exact.

---------- Initializing the Grid ----------
R = 
[      23.4363     -11.7335            0  ]
[     0.017994      19.9418            0  ]
[            0            0      43.2563  ]
unit cell volume = 20225.5
G =
[   0.267976   0.157673         -0  ]
[ -0.000241801   0.314933          0  ]
[          0         -0   0.145255  ]
Minimum fftbox size, Smin = [  96  96  176  ]
Chosen fftbox size, S = [  96  96  180  ]

---------- Exchange Correlation functional ----------
Initalized PBE GGA exchange.
Initalized PBE GGA correlation.

---------- Setting up pseudopotentials ----------
Width of ionic core gaussian charges (only for fluid interactions / plotting) set to 0.397384

Reading pseudopotential file '/projects/musgravc/apps/jdftx-1.6.0/build/pseudopotentials/GBRV_v1.5/c_pbe_v1.2.uspp':
  Title: C.  Created by USPP 7.3.6 on 3-2-2014
  Reference state energy: -5.406344.  4 valence electrons in orbitals:
    |200>  occupation: 2  eigenvalue: -0.504890
    |210>  occupation: 2  eigenvalue: -0.194356
  lMax: 1  lLocal: 2  QijEcut: 5
  4 projectors sampled on a log grid with 503 points:
    l: 0  eig: -0.504890  rCut: 1.3
    l: 0  eig: 0.000000  rCut: 1.3
    l: 1  eig: -0.194357  rCut: 1.3
    l: 1  eig: 0.000000  rCut: 1.3
  Partial core density with radius 1.1
  Transforming core density to a uniform radial grid of dG=0.02 with 1464 points.
  Transforming local potential to a uniform radial grid of dG=0.02 with 1464 points.
  Transforming nonlocal projectors to a uniform radial grid of dG=0.02 with 432 points.
  Transforming density augmentations to a uniform radial grid of dG=0.02 with 1464 points.
  Transforming atomic orbitals to a uniform radial grid of dG=0.02 with 432 points.
  Core radius for overlap checks: 1.30 bohrs.

Reading pseudopotential file '/projects/musgravc/apps/jdftx-1.6.0/build/pseudopotentials/GBRV_v1.5/n_pbe_v1.2.uspp':
  Title: N.  Created by USPP 7.3.6 on 3-2-2014
  Reference state energy: -9.763716.  5 valence electrons in orbitals:
    |200>  occupation: 2  eigenvalue: -0.681964
    |210>  occupation: 3  eigenvalue: -0.260726
  lMax: 1  lLocal: 2  QijEcut: 6
  4 projectors sampled on a log grid with 491 points:
    l: 0  eig: -0.681964  rCut: 1.15
    l: 0  eig: 0.000000  rCut: 1.15
    l: 1  eig: -0.260729  rCut: 1.2
    l: 1  eig: 0.500000  rCut: 1.2
  Partial core density with radius 0.8
  Transforming core density to a uniform radial grid of dG=0.02 with 1464 points.
  Transforming local potential to a uniform radial grid of dG=0.02 with 1464 points.
  Transforming nonlocal projectors to a uniform radial grid of dG=0.02 with 432 points.
  Transforming density augmentations to a uniform radial grid of dG=0.02 with 1464 points.
  Transforming atomic orbitals to a uniform radial grid of dG=0.02 with 432 points.
  Core radius for overlap checks: 1.20 bohrs.

Reading pseudopotential file '/projects/musgravc/apps/jdftx-1.6.0/build/pseudopotentials/GBRV_v1.5/ti_pbe_v1.4.uspp':
  Title: Ti.  Created by USPP 7.3.6 on 31-3-15
  Reference state energy: -59.020943.  12 valence electrons in orbitals:
    |300>  occupation: 2  eigenvalue: -2.777623
    |310>  occupation: 6  eigenvalue: -1.894596
    |400>  occupation: 2  eigenvalue: -0.438610
    |320>  occupation: 1  eigenvalue: -0.583119
  lMax: 2  lLocal: 3  QijEcut: 6
  6 projectors sampled on a log grid with 597 points:
    l: 0  eig: -2.777624  rCut: 1.8
    l: 0  eig: -0.438611  rCut: 1.8
    l: 1  eig: -1.894596  rCut: 1.8
    l: 1  eig: 0.500000  rCut: 1.8
    l: 2  eig: -0.583118  rCut: 1.8
    l: 2  eig: 0.150000  rCut: 1.8
  Partial core density with radius 0.8
  Transforming core density to a uniform radial grid of dG=0.02 with 1464 points.
  Transforming local potential to a uniform radial grid of dG=0.02 with 1464 points.
  Transforming nonlocal projectors to a uniform radial grid of dG=0.02 with 432 points.
  Transforming density augmentations to a uniform radial grid of dG=0.02 with 1464 points.
  Transforming atomic orbitals to a uniform radial grid of dG=0.02 with 432 points.
  Core radius for overlap checks: 1.80 bohrs.

Reading pseudopotential file '/projects/musgravc/apps/jdftx-1.6.0/build/pseudopotentials/GBRV_v1.5/o_pbe_v1.2.uspp':
  Title: O.  Created by USPP 7.3.6 on 3-2-2014
  Reference state energy: -15.894388.  6 valence electrons in orbitals:
    |200>  occupation: 2  eigenvalue: -0.878823
    |210>  occupation: 4  eigenvalue: -0.332131
  lMax: 2  lLocal: 2  QijEcut: 6
  5 projectors sampled on a log grid with 511 points:
    l: 0  eig: -0.878823  rCut: 1.25
    l: 0  eig: 0.000000  rCut: 1.25
    l: 1  eig: -0.332132  rCut: 1.25
    l: 1  eig: 0.000000  rCut: 1.25
    l: 2  eig: 1.000000  rCut: 1.25
  Partial core density with radius 0.7
  Transforming core density to a uniform radial grid of dG=0.02 with 1464 points.
  Transforming local potential to a uniform radial grid of dG=0.02 with 1464 points.
  Transforming nonlocal projectors to a uniform radial grid of dG=0.02 with 432 points.
  Transforming density augmentations to a uniform radial grid of dG=0.02 with 1464 points.
  Transforming atomic orbitals to a uniform radial grid of dG=0.02 with 432 points.
  Core radius for overlap checks: 1.25 bohrs.

Reading pseudopotential file '/projects/musgravc/apps/jdftx-1.6.0/build/pseudopotentials/GBRV_v1.5/h_pbe_v1.4.uspp':
  Title: H.  Created by USPP 7.3.6 on 2-4-15
  Reference state energy: -0.458849.  1 valence electrons in orbitals:
    |100>  occupation: 1  eigenvalue: -0.238595
  lMax: 0  lLocal: 1  QijEcut: 6
  2 projectors sampled on a log grid with 395 points:
    l: 0  eig: -0.238595  rCut: 1.2
    l: 0  eig: 1.000000  rCut: 1.2
  Transforming local potential to a uniform radial grid of dG=0.02 with 1464 points.
  Transforming nonlocal projectors to a uniform radial grid of dG=0.02 with 432 points.
  Transforming density augmentations to a uniform radial grid of dG=0.02 with 1464 points.
  Transforming atomic orbitals to a uniform radial grid of dG=0.02 with 432 points.
  Core radius for overlap checks: 1.20 bohrs.

Initialized 5 species with 56 total atoms.

Folded 1 k-points by 3x3x1 to 9 k-points.

---------- Setting up k-points, bands, fillings ----------
No reducable k-points. 
Computing the number of bands and number of electrons
Calculating initial fillings.
nElectrons: 233.000000   nBands: 140   nStates: 18

----- Setting up reduced wavefunction bases (one per k-point) -----
average nbasis = 86412.556 , ideal nbasis = 86404.907

----- Initializing Supercell corresponding to k-point mesh -----
Lattice vector linear combinations in supercell:
[   3   0   0  ]
[   0   3   0  ]
[   0   0   1  ]
Supercell lattice vectors:
[  70.3088  -35.2004  0  ]
[  0.053982  59.8255  0  ]
[  0  0  43.2563  ]

Initializing DFT-D3 calculator:
	Parameters set for gga-PBE functional
	s6:  1.000  s_r6:  1.217
	s8:  0.722  s_r8:  1.000
	Per-atom parameters loaded for:
	 C:  sqrtQ[a0]:  3.105  Rcov[a0]:  1.417  CN: [ 0.00 0.99 2.00 3.00 3.98 ]
	 N:  sqrtQ[a0]:  2.712  Rcov[a0]:  1.342  CN: [ 0.00 0.99 2.01 2.99 ]
	Ti:  sqrtQ[a0]:  6.288  Rcov[a0]:  2.305  CN: [ 0.00 1.83 3.87 ]
	 O:  sqrtQ[a0]:  2.594  Rcov[a0]:  1.191  CN: [ 0.00 0.99 1.99 ]
	 H:  sqrtQ[a0]:  2.007  Rcov[a0]:  0.605  CN: [ 0.91 0.00 ]

Initializing DFT-D2 calculator for fluid / solvation:
	 C:  C6:   30.35 Eh-a0^6  R0: 2.744 a0
	 N:  C6:   21.33 Eh-a0^6  R0: 2.640 a0
	Ti:  C6:  187.33 Eh-a0^6  R0: 2.952 a0
	 O:  C6:   12.14 Eh-a0^6  R0: 2.536 a0
	 H:  C6:    2.43 Eh-a0^6  R0: 1.892 a0

---------- Setting up ewald sum ----------
Optimum gaussian width for ewald sums = 5.557061 bohr.
Real space sum over 567 unit cells with max indices [  4  4  3  ]
Reciprocal space sum over 7803 terms with max indices [  8  8  13  ]

Computing DFT-D3 correction:
# coordination-number C 3.301 3.323 3.336 3.332 3.313 3.291 3.322 3.534 3.329 3.313 3.303 3.341 3.301 3.301 3.323 3.747 3.270 3.303 3.320 3.334 3.326 3.306 3.302 3.331 3.336 3.320 3.301 3.270 3.530 3.322 3.302 3.306 3.317 3.301 3.313 3.327 3.743 3.334 3.292 3.314 3.333 3.333 3.322 3.303 2.990
# coordination-number N 3.171 3.185 3.176 3.186
# coordination-number Ti 6.852
# coordination-number O 2.026 1.171 2.189
# coordination-number H 1.196 0.993 0.997
# diagonal-C6 C 24.27 24.05 23.90 23.95 24.16 24.36 24.06 21.15 23.98 24.15 24.25 23.85 24.27 24.27 24.05 19.00 24.55 24.26 24.08 23.93 24.02 24.23 24.26 23.97 23.91 24.08 24.27 24.55 21.20 24.06 24.26 24.22 24.11 24.27 24.15 24.00 19.02 23.93 24.36 24.14 23.94 23.94 24.06 24.25 25.69
# diagonal-C6 N 15.60 15.60 15.60 15.60
# diagonal-C6 Ti 321.59
# diagonal-C6 O 10.40 12.64 10.38
# diagonal-C6 H 3.04 3.09 3.09
EvdW_6 =   -0.044880
EvdW_8 =   -0.034077

---------- Allocating electronic variables ----------
Initializing wave functions:  linear combination of atomic orbitals
C pseudo-atom occupations:   s ( 2 )  p ( 2 )
N pseudo-atom occupations:   s ( 2 )  p ( 3 )
Ti pseudo-atom occupations:   s ( 2 0 )  p ( 6 )  d ( 4 )
O pseudo-atom occupations:   s ( 2 )  p ( 4 )
H pseudo-atom occupations:   s ( 1 )
	FillingsUpdate:  mu: -0.127200000  nElectrons: 233.000000  magneticMoment: [ Abs: 0.00447  Tot: +0.00003 ]
LCAOMinimize: Iter:   0  G: -369.1340502867353166  |grad|_K:  4.712e-03  alpha:  1.000e+00
	FillingsUpdate:  mu: -0.127200000  nElectrons: 233.000000  magneticMoment: [ Abs: 0.00439  Tot: -0.00003 ]
LCAOMinimize: Iter:   1  G: -371.3174428649190304  |grad|_K:  1.438e-03  alpha:  1.319e-01  linmin: -1.289e-01  cgtest:  1.837e+00  t[s]:    417.90
LCAOMinimize: Encountered beta<0, resetting CG.
LCAOMinimize: 	Predicted alpha/alphaT>3.000000, increasing alphaT to 3.957117e-01.
LCAOMinimize: 	Wrong curvature in test step, increasing alphaT to 1.187135e+00.
	FillingsUpdate:  mu: -0.127200000  nElectrons: 233.000000  magneticMoment: [ Abs: 0.00443  Tot: -0.00003 ]
LCAOMinimize: Iter:   2  G: -372.1190028803063115  |grad|_K:  1.061e-03  alpha: -1.904e+00  linmin: -2.446e-01  cgtest:  2.734e-01  t[s]:    622.43
	FillingsUpdate:  mu: -0.127200000  nElectrons: 233.000000  magneticMoment: [ Abs: 0.00445  Tot: -0.00003 ]
LCAOMinimize: Iter:   3  G: -372.1881248364619523  |grad|_K:  9.185e-04  alpha:  3.391e-02  linmin: -2.662e-01  cgtest:  8.726e-01  t[s]:    787.22
LCAOMinimize: Encountered beta<0, resetting CG.
LCAOMinimize: 	Predicted alpha/alphaT>3.000000, increasing alphaT to 1.017370e-01.
LCAOMinimize: 	Predicted alpha/alphaT>3.000000, increasing alphaT to 3.052110e-01.
	FillingsUpdate:  mu: -0.127200000  nElectrons: 233.000000  magneticMoment: [ Abs: 0.00445  Tot: -0.00004 ]
LCAOMinimize: Iter:   4  G: -372.2240784395597188  |grad|_K:  7.947e-04  alpha:  4.889e-02  linmin: -2.861e-01  cgtest:  9.271e-01  t[s]:   1035.22
LCAOMinimize: Encountered beta<0, resetting CG.
LCAOMinimize: 	Predicted alpha/alphaT>3.000000, increasing alphaT to 1.466750e-01.
LCAOMinimize: 	Step increased G by 5.132977e-01, reducing alpha to 3.222191e-02.
	FillingsUpdate:  mu: -0.127200000  nElectrons: 233.000000  magneticMoment: [ Abs: 0.00446  Tot: -0.00004 ]
LCAOMinimize: Iter:   5  G: -372.2417662073708016  |grad|_K:  7.114e-04  alpha:  3.222e-02  linmin: -2.912e-01  cgtest:  9.585e-01  t[s]:   1365.42
LCAOMinimize: Encountered beta<0, resetting CG.
LCAOMinimize: 	Predicted alpha/alphaT>3.000000, increasing alphaT to 9.666572e-02.
LCAOMinimize: 	Predicted alpha/alphaT>3.000000, increasing alphaT to 2.899972e-01.
	FillingsUpdate:  mu: -0.127200000  nElectrons: 233.000000  magneticMoment: [ Abs: 0.00447  Tot: -0.00005 ]
LCAOMinimize: Iter:   6  G: -372.2698809600414620  |grad|_K:  5.166e-04  alpha:  6.895e-02  linmin: -2.935e-01  cgtest:  9.155e-01  t[s]:   1614.60
LCAOMinimize: Encountered beta<0, resetting CG.
LCAOMinimize: 	Predicted alpha/alphaT>3.000000, increasing alphaT to 2.068447e-01.
	FillingsUpdate:  mu: -0.127200000  nElectrons: 233.000000  magneticMoment: [ Abs: 0.00451  Tot: -0.00014 ]
LCAOMinimize: Iter:   7  G: -372.2928743300915357  |grad|_K:  1.829e-04  alpha:  1.574e-01  linmin: -2.178e-03  cgtest:  1.680e-01  t[s]:   1816.90
	FillingsUpdate:  mu: -0.127200000  nElectrons: 233.000000  magneticMoment: [ Abs: 0.00453  Tot: -0.00011 ]
LCAOMinimize: Iter:   8  G: -372.2965466266759904  |grad|_K:  6.818e-05  alpha:  2.379e-01  linmin: -8.118e-02  cgtest:  1.794e-01  t[s]:   1959.96
	FillingsUpdate:  mu: -0.127200000  nElectrons: 233.000000  magneticMoment: [ Abs: 0.00457  Tot: -0.00014 ]
LCAOMinimize: Iter:   9  G: -372.2972636294622930  |grad|_K:  6.841e-05  alpha:  3.406e-01  linmin:  1.178e-02  cgtest: -1.248e-01  t[s]:   2102.08
	FillingsUpdate:  mu: -0.127200000  nElectrons: 233.000000  magneticMoment: [ Abs: 0.00460  Tot: -0.00014 ]
LCAOMinimize: Iter:  10  G: -372.2974839407319223  |grad|_K:  3.442e-05  alpha:  1.495e-01  linmin: -3.043e-02  cgtest:  6.842e-01  t[s]:   2243.88
LCAOMinimize: Encountered beta<0, resetting CG.
	FillingsUpdate:  mu: -0.127200000  nElectrons: 233.000000  magneticMoment: [ Abs: 0.00461  Tot: -0.00014 ]
LCAOMinimize: Iter:  11  G: -372.2975306219236131  |grad|_K:  2.045e-05  alpha:  1.091e-01  linmin: -2.727e-01  cgtest:  8.376e-01  t[s]:   2385.50
LCAOMinimize: Encountered beta<0, resetting CG.
	FillingsUpdate:  mu: -0.127200000  nElectrons: 233.000000  magneticMoment: [ Abs: 0.00461  Tot: -0.00014 ]
LCAOMinimize: Iter:  12  G: -372.2975550426642712  |grad|_K:  1.384e-05  alpha:  1.227e-01  linmin: -3.445e-01  cgtest:  9.700e-01  t[s]:   2527.07
LCAOMinimize: Encountered beta<0, resetting CG.
	FillingsUpdate:  mu: -0.127200000  nElectrons: 233.000000  magneticMoment: [ Abs: 0.00462  Tot: -0.00015 ]
LCAOMinimize: Iter:  13  G: -372.2975612318077197  |grad|_K:  1.097e-05  alpha:  9.476e-02  linmin: -3.148e-01  cgtest:  9.909e-01  t[s]:   2668.77
LCAOMinimize: Encountered beta<0, resetting CG.
	FillingsUpdate:  mu: -0.127200000  nElectrons: 233.000000  magneticMoment: [ Abs: 0.00462  Tot: -0.00015 ]
LCAOMinimize: Iter:  14  G: -372.2975636827936796  |grad|_K:  9.498e-06  alpha:  6.857e-02  linmin: -3.003e-01  cgtest:  9.966e-01  t[s]:   2810.38
LCAOMinimize: Encountered beta<0, resetting CG.
	FillingsUpdate:  mu: -0.127200000  nElectrons: 233.000000  magneticMoment: [ Abs: 0.00462  Tot: -0.00015 ]
LCAOMinimize: Iter:  15  G: -372.2975647155045635  |grad|_K:  8.701e-06  alpha:  4.625e-02  linmin: -2.918e-01  cgtest:  9.987e-01  t[s]:   2952.35
LCAOMinimize: Encountered beta<0, resetting CG.
	FillingsUpdate:  mu: -0.127200000  nElectrons: 233.000000  magneticMoment: [ Abs: 0.00462  Tot: -0.00015 ]
LCAOMinimize: Iter:  16  G: -372.2975651951712166  |grad|_K:  8.250e-06  alpha:  2.984e-02  linmin: -2.872e-01  cgtest:  9.995e-01  t[s]:   3093.83
LCAOMinimize: Encountered beta<0, resetting CG.
	FillingsUpdate:  mu: -0.127200000  nElectrons: 233.000000  magneticMoment: [ Abs: 0.00462  Tot: -0.00015 ]
LCAOMinimize: Iter:  17  G: -372.2975654363106059  |grad|_K:  7.989e-06  alpha:  1.874e-02  linmin: -2.846e-01  cgtest:  9.998e-01  t[s]:   3235.68
LCAOMinimize: Encountered beta<0, resetting CG.
LCAOMinimize: Converged (|Delta G|<1.000000e-06 for 2 iters).
----- createFluidSolver() ----- (Fluid-side solver setup)
   Initializing fluid molecule 'H2O'
     Initializing site 'O'
       Electron density: proportional to exp(-r/0.36935)*erfc((r-0.51523)/0.36823) with norm 6.826
       Charge density: gaussian nuclear width 0.478731 with net site charge 0.826
       Polarizability: cuspless exponential with width 0.32 and norm 3.73
       Hard sphere radius: 2.57003 bohrs
       Positions in reference frame:
         [ +0.000000 +0.000000 +0.000000 ]
     Initializing site 'H'
       Electron density: proportional to exp(-r/0.34641)*erfc((r-0)/0.390882) with norm 0.587
       Charge density: gaussian nuclear width 0.377945 with net site charge -0.413
       Polarizability: cuspless exponential with width 0.39 and norm 3.3
       Positions in reference frame:
         [ +0.000000 -1.441945 +1.122523 ]
         [ +0.000000 +1.441945 +1.122523 ]
     Net charge: 0   dipole magnitude: 0.927204
     Initializing spherical shell mfKernel with radius 2.61727 Bohr
     deltaS corrections:
       site 'O': -7.54299
       site 'H': -6.83917
   Initializing fluid molecule 'Na+'
     Initializing site 'Na'
       Electron density: proportional to exp(-r/0.19682)*erfc((r-0.71491)/0.41314) with norm 8.1383
       Charge density: gaussian nuclear width 0.365347 with net site charge -1
       Hard sphere radius: 1.86327 bohrs
       Positions in reference frame:
         [ +0.000000 +0.000000 +0.000000 ]
     Net charge: -1   dipole magnitude: 0
     Initializing gaussian mfKernel with width: 1.55004 Bohr
     deltaS corrections:
       site 'Na': -22.3555
   Initializing fluid molecule 'F-'
     Initializing site 'F'
       Electron density: proportional to exp(-r/0.38886)*erfc((r-0)/0.438782) with norm 8
       Charge density: gaussian nuclear width 0.374796 with net site charge 1
       Hard sphere radius: 2.39995 bohrs
       Positions in reference frame:
         [ +0.000000 +0.000000 +0.000000 ]
     Net charge: 1   dipole magnitude: 0
     Initializing gaussian mfKernel with width: 1.59012 Bohr
     deltaS corrections:
       site 'F': -9.04335

Correction to mu due to finite nuclear width = -0.0114303
   Cavity determined by nc: 0.00142 and sigma: 0.707107
   Nonlocal vdW cavity from gaussian model electron density with norm = 8 and sigma = 0.993594 bohr
   Charge asymmetry in cavity with sensitivity pCavity = 36.5 e-bohr/Eh
   Electrostatic cavity expanded by eta = 1.46 bohrs
   Weighted density cavitation model constrained by Nbulk: 0.0049383 bohr^-3, Pvap: 3.14029 kPa, Rvdw: 2.61727 bohr and sigmaBulk: 4.62e-05 Eh/bohr^2 at T: 298 K.
   Weighted density dispersion model using vdW pair potentials with single solvent site with sqrtC6eff: 0.77 SI.


---- Citations for features of the code used in this run ----

   Software package:
      R. Sundararaman, K. Letchworth-Weaver, K.A. Schwarz, D. Gunceler, Y. Ozhabes and T.A. Arias, 'JDFTx: software for joint density-functional theory', SoftwareX 6, 278 (2017)

   gga-PBE exchange-correlation functional:
      J.P. Perdew, K. Burke and M. Ernzerhof, Phys. Rev. Lett. 77, 3865 (1996)

   Pseudopotentials:
      KF Garrity, JW Bennett, KM Rabe and D Vanderbilt, Comput. Mater. Sci. 81, 446 (2014)

   DFT-D3 dispersion correction:
      S. Grimme, J. Antony, S. Ehrlich and H. Krieg, J. Chem. Phys. 132, 154104 (2010)

   DFT-D2 dispersion correction:
      S. Grimme, J. Comput. Chem. 27, 1787 (2006)

   Charge-asymmetric nonlocally-determined local-electric (CANDLE) solvation model:
      R. Sundararaman and W.A. Goddard III, J. Chem. Phys. 142, 064107 (2015)

   Total energy minimization with Auxiliary Hamiltonian:
      C. Freysoldt, S. Boeck, and J. Neugebauer, Phys. Rev. B 79, 241103(R) (2009)

   Grand-canonical (fixed-potential) DFT:
      R. Sundararaman, W. A. Goddard III and T. A. Arias, J. Chem. Phys. 146, 114104 (2017)

   Linear-tetrahedron sampling for density of states:
      G. Lehmann and M. Taut, Phys. status solidi (b) 54, 469 (1972)

This list may not be complete. Please suggest additional citations or
report any other bugs at https://github.com/shankar1729/jdftx/issues

Initialization completed successfully at t[s]:   3255.27


Computing DFT-D3 correction:
# coordination-number C 3.301 3.323 3.336 3.332 3.313 3.291 3.322 3.534 3.329 3.313 3.303 3.341 3.301 3.301 3.323 3.747 3.270 3.303 3.320 3.334 3.326 3.306 3.302 3.331 3.336 3.320 3.301 3.270 3.530 3.322 3.302 3.306 3.317 3.301 3.313 3.327 3.743 3.334 3.292 3.314 3.333 3.333 3.322 3.303 2.990
# coordination-number N 3.171 3.185 3.176 3.186
# coordination-number Ti 6.852
# coordination-number O 2.026 1.171 2.189
# coordination-number H 1.196 0.993 0.997
# diagonal-C6 C 24.27 24.05 23.90 23.95 24.16 24.36 24.06 21.15 23.98 24.15 24.25 23.85 24.27 24.27 24.05 19.00 24.55 24.26 24.08 23.93 24.02 24.23 24.26 23.97 23.91 24.08 24.27 24.55 21.20 24.06 24.26 24.22 24.11 24.27 24.15 24.00 19.02 23.93 24.36 24.14 23.94 23.94 24.06 24.25 25.69
# diagonal-C6 N 15.60 15.60 15.60 15.60
# diagonal-C6 Ti 321.59
# diagonal-C6 O 10.40 12.64 10.38
# diagonal-C6 H 3.04 3.09 3.09
EvdW_6 =   -0.044880
EvdW_8 =   -0.034077
Fluid solver invoked on fresh (random / LCAO) wavefunctions
Running a vacuum solve first:

-------- Initial electronic minimization -----------
	FillingsUpdate:  mu: -0.189554105  nElectrons: 233.000000  magneticMoment: [ Abs: 0.00462  Tot: -0.00015 ]
ElecMinimize: Iter:   0  G: -372.297079042004327  |grad|_K:  1.443e-04  alpha:  1.000e+00
	FillingsUpdate:  mu: -0.128744486  nElectrons: 233.000000  magneticMoment: [ Abs: 0.00268  Tot: -0.00017 ]
	SubspaceRotationAdjust: set factor to 1
ElecMinimize: Iter:   1  G: -375.343497451606879  |grad|_K:  4.854e-05  alpha:  6.799e-01  linmin:  5.458e-04  t[s]:   3487.56
	FillingsUpdate:  mu: -0.062562536  nElectrons: 233.000000  magneticMoment: [ Abs: 0.00284  Tot: -0.00071 ]
	SubspaceRotationAdjust: set factor to 0.716
ElecMinimize: Iter:   2  G: -375.424977720087327  |grad|_K:  4.202e-05  alpha:  1.042e-01  linmin: -8.045e-04  t[s]:   3628.96
ElecMinimize: 	Predicted alpha/alphaT>3.000000, increasing alphaT to 3.127390e-01.
	FillingsUpdate:  mu: -0.070580941  nElectrons: 233.000000  magneticMoment: [ Abs: 0.00332  Tot: -0.00219 ]
	SubspaceRotationAdjust: set factor to 0.506
ElecMinimize: Iter:   3  G: -375.590749353041474  |grad|_K:  3.983e-05  alpha:  3.364e-01  linmin: -3.774e-05  t[s]:   3806.08
	FillingsUpdate:  mu: -0.105056357  nElectrons: 233.000000  magneticMoment: [ Abs: 0.00275  Tot: -0.00203 ]
	SubspaceRotationAdjust: set factor to 0.313
ElecMinimize: Iter:   4  G: -375.626271128038638  |grad|_K:  2.165e-05  alpha:  1.363e-01  linmin:  3.294e-04  t[s]:   3947.44
ElecMinimize: 	Predicted alpha/alphaT>3.000000, increasing alphaT to 4.089123e-01.
	FillingsUpdate:  mu: -0.115771547  nElectrons: 233.000000  magneticMoment: [ Abs: 0.00339  Tot: -0.00297 ]
	SubspaceRotationAdjust: set factor to 0.452
ElecMinimize: Iter:   5  G: -375.664303785870516  |grad|_K:  1.531e-05  alpha:  4.674e-01  linmin:  2.870e-06  t[s]:   4125.35
	FillingsUpdate:  mu: -0.070845562  nElectrons: 233.000000  magneticMoment: [ Abs: 0.00514  Tot: -0.00475 ]
	SubspaceRotationAdjust: set factor to 0.366
ElecMinimize: Iter:   6  G: -375.680382605398734  |grad|_K:  9.170e-06  alpha:  3.120e-01  linmin:  3.434e-06  t[s]:   4267.20
	FillingsUpdate:  mu: -0.071185893  nElectrons: 233.000000  magneticMoment: [ Abs: 0.00749  Tot: -0.00709 ]
	SubspaceRotationAdjust: set factor to 0.417
ElecMinimize: Iter:   7  G: -375.689970362292286  |grad|_K:  5.959e-06  alpha:  5.234e-01  linmin:  1.625e-06  t[s]:   4408.65
	FillingsUpdate:  mu: -0.084509388  nElectrons: 233.000000  magneticMoment: [ Abs: 0.00974  Tot: -0.00928 ]
	SubspaceRotationAdjust: set factor to 0.375
ElecMinimize: Iter:   8  G: -375.693597824059964  |grad|_K:  4.572e-06  alpha:  4.691e-01  linmin: -9.261e-06  t[s]:   4550.40
	FillingsUpdate:  mu: -0.074368518  nElectrons: 233.000000  magneticMoment: [ Abs: 0.01358  Tot: -0.01304 ]
	SubspaceRotationAdjust: set factor to 0.332
ElecMinimize: Iter:   9  G: -375.695036475057123  |grad|_K:  2.423e-06  alpha:  3.130e-01  linmin:  3.162e-07  t[s]:   4691.66
	FillingsUpdate:  mu: -0.074466043  nElectrons: 233.000000  magneticMoment: [ Abs: 0.02082  Tot: -0.02008 ]
	SubspaceRotationAdjust: set factor to 0.366
ElecMinimize: Iter:  10  G: -375.695826494920823  |grad|_K:  1.794e-06  alpha:  6.179e-01  linmin:  3.071e-06  t[s]:   4840.22
	FillingsUpdate:  mu: -0.077681453  nElectrons: 233.000000  magneticMoment: [ Abs: 0.02855  Tot: -0.02755 ]
	SubspaceRotationAdjust: set factor to 0.315
ElecMinimize: Iter:  11  G: -375.696142030208193  |grad|_K:  1.305e-06  alpha:  4.510e-01  linmin:  1.647e-07  t[s]:   5004.24
	FillingsUpdate:  mu: -0.075239226  nElectrons: 233.000000  magneticMoment: [ Abs: 0.04031  Tot: -0.03895 ]
	SubspaceRotationAdjust: set factor to 0.286
ElecMinimize: Iter:  12  G: -375.696292642445712  |grad|_K:  8.666e-07  alpha:  4.059e-01  linmin:  1.568e-06  t[s]:   5167.02
	FillingsUpdate:  mu: -0.075206895  nElectrons: 233.000000  magneticMoment: [ Abs: 0.06186  Tot: -0.05976 ]
	SubspaceRotationAdjust: set factor to 0.324
ElecMinimize: Iter:  13  G: -375.696393996753272  |grad|_K:  6.328e-07  alpha:  6.202e-01  linmin:  1.761e-06  t[s]:   5330.52
	FillingsUpdate:  mu: -0.076496279  nElectrons: 233.000000  magneticMoment: [ Abs: 0.08859  Tot: -0.08547 ]
	SubspaceRotationAdjust: set factor to 0.345
ElecMinimize: Iter:  14  G: -375.696442162951030  |grad|_K:  6.119e-07  alpha:  5.528e-01  linmin: -1.298e-06  t[s]:   5493.99
	FillingsUpdate:  mu: -0.075561008  nElectrons: 233.000000  magneticMoment: [ Abs: 0.16121  Tot: -0.15548 ]
	SubspaceRotationAdjust: set factor to 0.395
ElecMinimize: Iter:  15  G: -375.696503638588865  |grad|_K:  8.278e-07  alpha:  7.644e-01  linmin:  4.407e-05  t[s]:   5657.57
	FillingsUpdate:  mu: -0.074806963  nElectrons: 233.000000  magneticMoment: [ Abs: 0.40939  Tot: -0.39242 ]
	SubspaceRotationAdjust: set factor to 0.438
ElecMinimize: Iter:  16  G: -375.696608465898748  |grad|_K:  2.028e-06  alpha:  1.116e+00  linmin:  4.121e-04  t[s]:   5820.72
ElecMinimize: 	Step increased G by 6.747616e-04, reducing alpha to 8.359659e-05.
ElecMinimize: 	Step increased G by 6.746430e-04, reducing alpha to 8.359659e-06.
ElecMinimize: 	Step increased G by 6.746322e-04, reducing alpha to 8.359659e-07.
ElecMinimize: 	Step failed to reduce G after 3 attempts. Quitting step.
ElecMinimize: 	Undoing step.
ElecMinimize: 	Step failed: resetting search direction.
	FillingsUpdate:  mu: -0.073760880  nElectrons: 233.000000  magneticMoment: [ Abs: 0.40940  Tot: -0.39243 ]
	SubspaceRotationAdjust: set factor to 0.361
ElecMinimize: Iter:  17  G: -375.695933833826246  |grad|_K:  2.651e-06  alpha:  8.360e-07
	FillingsUpdate:  mu: -0.083109699  nElectrons: 233.000000  magneticMoment: [ Abs: 0.44607  Tot: -0.42671 ]
	SubspaceRotationAdjust: set factor to 0.247
ElecMinimize: Iter:  18  G: -375.696452933288924  |grad|_K:  2.263e-06  alpha:  3.531e-01  linmin:  3.086e-04  t[s]:   6470.59
	FillingsUpdate:  mu: -0.077045030  nElectrons: 233.000000  magneticMoment: [ Abs: 0.55539  Tot: -0.52260 ]
	SubspaceRotationAdjust: set factor to 0.337
ElecMinimize: Iter:  19  G: -375.697195860077898  |grad|_K:  1.365e-06  alpha:  6.917e-01  linmin:  3.357e-05  t[s]:   6634.08
	FillingsUpdate:  mu: -0.076844770  nElectrons: 233.000000  magneticMoment: [ Abs: 0.59321  Tot: -0.54515 ]
	SubspaceRotationAdjust: set factor to 0.394
ElecMinimize: Iter:  20  G: -375.697491415972877  |grad|_K:  9.986e-07  alpha:  7.310e-01  linmin: -8.618e-05  t[s]:   6797.57
	FillingsUpdate:  mu: -0.078582241  nElectrons: 233.000000  magneticMoment: [ Abs: 0.60763  Tot: -0.55023 ]
	SubspaceRotationAdjust: set factor to 0.463
ElecMinimize: Iter:  21  G: -375.697589485118442  |grad|_K:  6.282e-07  alpha:  4.447e-01  linmin:  4.170e-06  t[s]:   6961.50
	FillingsUpdate:  mu: -0.077058992  nElectrons: 233.000000  magneticMoment: [ Abs: 0.62284  Tot: -0.55348 ]
	SubspaceRotationAdjust: set factor to 0.461
ElecMinimize: Iter:  22  G: -375.697641339817210  |grad|_K:  5.189e-07  alpha:  5.996e-01  linmin: -8.678e-05  t[s]:   7125.11
	FillingsUpdate:  mu: -0.078599401  nElectrons: 233.000000  magneticMoment: [ Abs: 0.63160  Tot: -0.55436 ]
	SubspaceRotationAdjust: set factor to 0.411
ElecMinimize: Iter:  23  G: -375.697663573620616  |grad|_K:  3.476e-07  alpha:  3.744e-01  linmin:  3.969e-06  t[s]:   7288.64
	FillingsUpdate:  mu: -0.077705505  nElectrons: 233.000000  magneticMoment: [ Abs: 0.64307  Tot: -0.55515 ]
	SubspaceRotationAdjust: set factor to 0.388
ElecMinimize: Iter:  24  G: -375.697678142445852  |grad|_K:  2.152e-07  alpha:  5.524e-01  linmin: -3.441e-05  t[s]:   7452.09
	FillingsUpdate:  mu: -0.078289681  nElectrons: 233.000000  magneticMoment: [ Abs: 0.65128  Tot: -0.55543 ]
	SubspaceRotationAdjust: set factor to 0.377
ElecMinimize: Iter:  25  G: -375.697685363582593  |grad|_K:  1.534e-07  alpha:  7.104e-01  linmin: -1.196e-05  t[s]:   7615.17
	FillingsUpdate:  mu: -0.077947896  nElectrons: 233.000000  magneticMoment: [ Abs: 0.65527  Tot: -0.55555 ]
	SubspaceRotationAdjust: set factor to 0.374
ElecMinimize: Iter:  26  G: -375.697687598355060  |grad|_K:  9.610e-08  alpha:  4.339e-01  linmin: -7.464e-08  t[s]:   7778.68
	FillingsUpdate:  mu: -0.078177040  nElectrons: 233.000000  magneticMoment: [ Abs: 0.65766  Tot: -0.55558 ]
	SubspaceRotationAdjust: set factor to 0.369
ElecMinimize: Iter:  27  G: -375.697688642660580  |grad|_K:  6.523e-08  alpha:  5.189e-01  linmin: -2.983e-07  t[s]:   7942.54
	FillingsUpdate:  mu: -0.078015387  nElectrons: 233.000000  magneticMoment: [ Abs: 0.65950  Tot: -0.55559 ]
	SubspaceRotationAdjust: set factor to 0.356
ElecMinimize: Iter:  28  G: -375.697689159908464  |grad|_K:  4.676e-08  alpha:  5.580e-01  linmin:  5.519e-07  t[s]:   8106.39
	FillingsUpdate:  mu: -0.078114429  nElectrons: 233.000000  magneticMoment: [ Abs: 0.66040  Tot: -0.55557 ]
	SubspaceRotationAdjust: set factor to 0.372
ElecMinimize: Iter:  29  G: -375.697689397566194  |grad|_K:  2.575e-08  alpha:  4.987e-01  linmin:  1.945e-07  t[s]:   8269.44
	FillingsUpdate:  mu: -0.078081081  nElectrons: 233.000000  magneticMoment: [ Abs: 0.66089  Tot: -0.55555 ]
	SubspaceRotationAdjust: set factor to 0.411
ElecMinimize: Iter:  30  G: -375.697689487987418  |grad|_K:  1.926e-08  alpha:  6.258e-01  linmin: -1.997e-07  t[s]:   8432.85
	FillingsUpdate:  mu: -0.078103056  nElectrons: 233.000000  magneticMoment: [ Abs: 0.66120  Tot: -0.55553 ]
	SubspaceRotationAdjust: set factor to 0.434
ElecMinimize: Iter:  31  G: -375.697689540296835  |grad|_K:  1.337e-08  alpha:  6.459e-01  linmin:  2.606e-07  t[s]:   8596.72
ElecMinimize: Converged (|Delta G|<1.000000e-07 for 2 iters).
Setting wave functions to eigenvectors of Hamiltonian
Converging empty states (this may take a while): |deigs|: 8.713e-03
Vacuum energy after initial minimize, F = -375.697689540296835

Shifting auxilliary hamiltonian by -0.049097 to set nElectrons=233.000000

-------- Electronic minimization -----------
	Linear fluid (dielectric constant: 78.4, screening length: 8.12261 Bohr) occupying 0.708068 of unit cell:	Completed after 23 iterations at t[s]:   9440.75
	FillingsUpdate:  mu: -0.127200000  nElectrons: 233.000000  magneticMoment: [ Abs: 0.66138  Tot: -0.55552 ]
ElecMinimize: Iter:   0  G: -375.705270820742896  |grad|_K:  7.373e-06  alpha:  1.000e+00
	Linear fluid (dielectric constant: 78.4, screening length: 8.12261 Bohr) occupying 0.712641 of unit cell:	Completed after 21 iterations at t[s]:   9603.17
	Linear fluid (dielectric constant: 78.4, screening length: 8.12261 Bohr) occupying 0.709315 of unit cell:	Completed after 19 iterations at t[s]:   9671.61
	FillingsUpdate:  mu: -0.127200000  nElectrons: 233.221288  magneticMoment: [ Abs: 0.85918  Tot: -0.77248 ]
	SubspaceRotationAdjust: set factor to 0.262
ElecMinimize: Iter:   1  G: -375.706259026354758  |grad|_K:  1.186e-05  alpha:  3.295e-01  linmin:  2.919e-03  t[s]:   9742.49
	Linear fluid (dielectric constant: 78.4, screening length: 8.12261 Bohr) occupying 0.713038 of unit cell:	Completed after 18 iterations at t[s]:   9819.11
	Linear fluid (dielectric constant: 78.4, screening length: 8.12261 Bohr) occupying 0.711351 of unit cell:	Completed after 16 iterations at t[s]:   9884.62
	FillingsUpdate:  mu: -0.127200000  nElectrons: 233.411314  magneticMoment: [ Abs: 0.91086  Tot: -0.83928 ]
	SubspaceRotationAdjust: set factor to 0.205
ElecMinimize: Iter:   2  G: -375.711307246392266  |grad|_K:  5.564e-06  alpha:  2.368e-01  linmin: -1.863e-04  t[s]:   9955.37
	Linear fluid (dielectric constant: 78.4, screening length: 8.12261 Bohr) occupying 0.711375 of unit cell:	Completed after 17 iterations at t[s]:  10031.17
	Linear fluid (dielectric constant: 78.4, screening length: 8.12261 Bohr) occupying 0.711367 of unit cell:	Completed after 8 iterations at t[s]:  10089.88
	FillingsUpdate:  mu: -0.127200000  nElectrons: 233.407554  magneticMoment: [ Abs: 0.87208  Tot: -0.79654 ]
	SubspaceRotationAdjust: set factor to 0.151
ElecMinimize: Iter:   3  G: -375.712687553320677  |grad|_K:  3.263e-06  alpha:  2.017e-01  linmin: -6.444e-05  t[s]:  10160.98
	Linear fluid (dielectric constant: 78.4, screening length: 8.12261 Bohr) occupying 0.711360 of unit cell:	Completed after 11 iterations at t[s]:  10231.49
	Linear fluid (dielectric constant: 78.4, screening length: 8.12261 Bohr) occupying 0.711356 of unit cell:	Completed after 11 iterations at t[s]:  10292.41
	FillingsUpdate:  mu: -0.127200000  nElectrons: 233.411951  magneticMoment: [ Abs: 0.87667  Tot: -0.79596 ]
	SubspaceRotationAdjust: set factor to 0.16
ElecMinimize: Iter:   4  G: -375.713622005589798  |grad|_K:  1.973e-06  alpha:  3.997e-01  linmin: -1.095e-05  t[s]:  10363.48
	Linear fluid (dielectric constant: 78.4, screening length: 8.12261 Bohr) occupying 0.711477 of unit cell:	Completed after 10 iterations at t[s]:  10432.88
	Linear fluid (dielectric constant: 78.4, screening length: 8.12261 Bohr) occupying 0.711485 of unit cell:	Completed after 3 iterations at t[s]:  10487.20
	FillingsUpdate:  mu: -0.127200000  nElectrons: 233.434948  magneticMoment: [ Abs: 0.90566  Tot: -0.82105 ]
	SubspaceRotationAdjust: set factor to 0.148
ElecMinimize: Iter:   5  G: -375.713982926356096  |grad|_K:  1.695e-06  alpha:  4.246e-01  linmin: -5.790e-05  t[s]:  10558.60
	Linear fluid (dielectric constant: 78.4, screening length: 8.12261 Bohr) occupying 0.711475 of unit cell:	Completed after 10 iterations at t[s]:  10627.47
	Linear fluid (dielectric constant: 78.4, screening length: 8.12261 Bohr) occupying 0.711475 of unit cell:	Completed after 2 iterations at t[s]:  10681.00
	FillingsUpdate:  mu: -0.127200000  nElectrons: 233.437229  magneticMoment: [ Abs: 0.92812  Tot: -0.84043 ]
	SubspaceRotationAdjust: set factor to 0.199
ElecMinimize: Iter:   6  G: -375.714243775777675  |grad|_K:  1.025e-06  alpha:  4.134e-01  linmin: -6.166e-07  t[s]:  10751.75
	Linear fluid (dielectric constant: 78.4, screening length: 8.12261 Bohr) occupying 0.711427 of unit cell:	Completed after 11 iterations at t[s]:  10821.93
	Linear fluid (dielectric constant: 78.4, screening length: 8.12261 Bohr) occupying 0.711411 of unit cell:	Completed after 7 iterations at t[s]:  10879.52
	FillingsUpdate:  mu: -0.127200000  nElectrons: 233.427166  magneticMoment: [ Abs: 0.94054  Tot: -0.85114 ]
	SubspaceRotationAdjust: set factor to 0.192
ElecMinimize: Iter:   7  G: -375.714374424170387  |grad|_K:  1.081e-06  alpha:  5.671e-01  linmin: -7.986e-05  t[s]:  10950.52
	Linear fluid (dielectric constant: 78.4, screening length: 8.12261 Bohr) occupying 0.711522 of unit cell:	Completed after 8 iterations at t[s]:  11018.95
	Linear fluid (dielectric constant: 78.4, screening length: 8.12261 Bohr) occupying 0.711489 of unit cell:	Completed after 4 iterations at t[s]:  11073.49
	FillingsUpdate:  mu: -0.127200000  nElectrons: 233.431592  magneticMoment: [ Abs: 0.96250  Tot: -0.87089 ]
	SubspaceRotationAdjust: set factor to 0.249
ElecMinimize: Iter:   8  G: -375.714477276565674  |grad|_K:  6.316e-07  alpha:  3.989e-01  linmin:  6.101e-07  t[s]:  11144.39
	Linear fluid (dielectric constant: 78.4, screening length: 8.12261 Bohr) occupying 0.711551 of unit cell:	Completed after 4 iterations at t[s]:  11208.18
	Linear fluid (dielectric constant: 78.4, screening length: 8.12261 Bohr) occupying 0.711601 of unit cell:	Completed after 4 iterations at t[s]:  11263.15
	FillingsUpdate:  mu: -0.127200000  nElectrons: 233.436621  magneticMoment: [ Abs: 0.98393  Tot: -0.88974 ]
	SubspaceRotationAdjust: set factor to 0.268
ElecMinimize: Iter:   9  G: -375.714539807744870  |grad|_K:  6.689e-07  alpha:  7.167e-01  linmin: -3.463e-05  t[s]:  11334.59
	Linear fluid (dielectric constant: 78.4, screening length: 8.12261 Bohr) occupying 0.711676 of unit cell:	Completed after 8 iterations at t[s]:  11402.16
	Linear fluid (dielectric constant: 78.4, screening length: 8.12261 Bohr) occupying 0.711635 of unit cell:	Completed after 6 iterations at t[s]:  11459.02
	FillingsUpdate:  mu: -0.127200000  nElectrons: 233.433783  magneticMoment: [ Abs: 0.99438  Tot: -0.89815 ]
	SubspaceRotationAdjust: set factor to 0.255
ElecMinimize: Iter:  10  G: -375.714574259284461  |grad|_K:  4.679e-07  alpha:  3.545e-01  linmin:  3.212e-05  t[s]:  11529.76
	Linear fluid (dielectric constant: 78.4, screening length: 8.12261 Bohr) occupying 0.711702 of unit cell:	Completed after 4 iterations at t[s]:  11594.06
	Linear fluid (dielectric constant: 78.4, screening length: 8.12261 Bohr) occupying 0.711743 of unit cell:	Completed after 3 iterations at t[s]:  11648.05
	FillingsUpdate:  mu: -0.127200000  nElectrons: 233.438204  magneticMoment: [ Abs: 1.01042  Tot: -0.91112 ]
	SubspaceRotationAdjust: set factor to 0.31
ElecMinimize: Iter:  11  G: -375.714601519027610  |grad|_K:  3.338e-07  alpha:  5.735e-01  linmin: -3.238e-05  t[s]:  11718.87
	Linear fluid (dielectric constant: 78.4, screening length: 8.12261 Bohr) occupying 0.711807 of unit cell:	Completed after 7 iterations at t[s]:  11785.59
	Linear fluid (dielectric constant: 78.4, screening length: 8.12261 Bohr) occupying 0.711796 of unit cell:	Completed after 2 iterations at t[s]:  11838.73
	FillingsUpdate:  mu: -0.127200000  nElectrons: 233.441351  magneticMoment: [ Abs: 1.02016  Tot: -0.91864 ]
	SubspaceRotationAdjust: set factor to 0.317
ElecMinimize: Iter:  12  G: -375.714613134109527  |grad|_K:  2.969e-07  alpha:  4.774e-01  linmin: -3.270e-05  t[s]:  11910.00
	Linear fluid (dielectric constant: 78.4, screening length: 8.12261 Bohr) occupying 0.711791 of unit cell:	Completed after 5 iterations at t[s]:  11975.03
	Linear fluid (dielectric constant: 78.4, screening length: 8.12261 Bohr) occupying 0.711792 of unit cell:	Completed after 3 iterations at t[s]:  12028.80
	FillingsUpdate:  mu: -0.127200000  nElectrons: 233.440040  magneticMoment: [ Abs: 1.02496  Tot: -0.92170 ]
	SubspaceRotationAdjust: set factor to 0.271
ElecMinimize: Iter:  13  G: -375.714619818886206  |grad|_K:  1.899e-07  alpha:  3.490e-01  linmin: -9.552e-07  t[s]:  12099.50
	Linear fluid (dielectric constant: 78.4, screening length: 8.12261 Bohr) occupying 0.711797 of unit cell:	Completed after 2 iterations at t[s]:  12161.70
	Linear fluid (dielectric constant: 78.4, screening length: 8.12261 Bohr) occupying 0.711801 of unit cell:	Completed after 2 iterations at t[s]:  12214.88
	FillingsUpdate:  mu: -0.127200000  nElectrons: 233.441353  magneticMoment: [ Abs: 1.03153  Tot: -0.92620 ]
	SubspaceRotationAdjust: set factor to 0.356
ElecMinimize: Iter:  14  G: -375.714624248218968  |grad|_K:  1.360e-07  alpha:  5.644e-01  linmin: -7.587e-06  t[s]:  12285.61
	Linear fluid (dielectric constant: 78.4, screening length: 8.12261 Bohr) occupying 0.711808 of unit cell:	Completed after 3 iterations at t[s]:  12348.98
	Linear fluid (dielectric constant: 78.4, screening length: 8.12261 Bohr) occupying 0.711807 of unit cell:	Completed after 0 iterations at t[s]:  12399.67
	FillingsUpdate:  mu: -0.127200000  nElectrons: 233.442700  magneticMoment: [ Abs: 1.03604  Tot: -0.92920 ]
	SubspaceRotationAdjust: set factor to 0.307
ElecMinimize: Iter:  15  G: -375.714626291506875  |grad|_K:  1.351e-07  alpha:  5.040e-01  linmin:  2.295e-04  t[s]:  12470.18
	Linear fluid (dielectric constant: 78.4, screening length: 8.12261 Bohr) occupying 0.711787 of unit cell:	Completed after 3 iterations at t[s]:  12533.35
	Linear fluid (dielectric constant: 78.4, screening length: 8.12261 Bohr) occupying 0.711795 of unit cell:	Completed after 1 iterations at t[s]:  12585.23
	FillingsUpdate:  mu: -0.127200000  nElectrons: 233.442004  magneticMoment: [ Abs: 1.03811  Tot: -0.93012 ]
	SubspaceRotationAdjust: set factor to 0.257
ElecMinimize: Iter:  16  G: -375.714627429283098  |grad|_K:  8.793e-08  alpha:  3.098e-01  linmin:  5.842e-05  t[s]:  12657.38
	Linear fluid (dielectric constant: 78.4, screening length: 8.12261 Bohr) occupying 0.711790 of unit cell:	Completed after 1 iterations at t[s]:  12719.74
	Linear fluid (dielectric constant: 78.4, screening length: 8.12261 Bohr) occupying 0.711787 of unit cell:	Completed after 2 iterations at t[s]:  12772.53
	FillingsUpdate:  mu: -0.127200000  nElectrons: 233.442098  magneticMoment: [ Abs: 1.04066  Tot: -0.93140 ]
	SubspaceRotationAdjust: set factor to 0.337
ElecMinimize: Iter:  17  G: -375.714628312686216  |grad|_K:  5.547e-08  alpha:  5.339e-01  linmin: -1.046e-04  t[s]:  12843.62
	Linear fluid (dielectric constant: 78.4, screening length: 8.12261 Bohr) occupying 0.711785 of unit cell:	Completed after 0 iterations at t[s]:  12902.63
	Linear fluid (dielectric constant: 78.4, screening length: 8.12261 Bohr) occupying 0.711784 of unit cell:	Completed after 1 iterations at t[s]:  12954.77
	FillingsUpdate:  mu: -0.127200000  nElectrons: 233.442338  magneticMoment: [ Abs: 1.04263  Tot: -0.93233 ]
	SubspaceRotationAdjust: set factor to 0.343
ElecMinimize: Iter:  18  G: -375.714628716313655  |grad|_K:  4.748e-08  alpha:  7.415e-01  linmin:  6.046e-04  t[s]:  13026.06
	Linear fluid (dielectric constant: 78.4, screening length: 8.12261 Bohr) occupying 0.711776 of unit cell:	Completed after 3 iterations at t[s]:  13088.88
	Linear fluid (dielectric constant: 78.4, screening length: 8.12261 Bohr) occupying 0.711779 of unit cell:	Completed after 0 iterations at t[s]:  13139.08
	FillingsUpdate:  mu: -0.127200000  nElectrons: 233.442050  magneticMoment: [ Abs: 1.04338  Tot: -0.93246 ]
	SubspaceRotationAdjust: set factor to 0.303
ElecMinimize: Iter:  19  G: -375.714628916282095  |grad|_K:  4.413e-08  alpha:  4.654e-01  linmin:  3.623e-04  t[s]:  13210.54
	Linear fluid (dielectric constant: 78.4, screening length: 8.12261 Bohr) occupying 0.711779 of unit cell:	Completed after 1 iterations at t[s]:  13271.58
	Linear fluid (dielectric constant: 78.4, screening length: 8.12261 Bohr) occupying 0.711779 of unit cell:	Completed after 1 iterations at t[s]:  13324.75
	FillingsUpdate:  mu: -0.127200000  nElectrons: 233.442154  magneticMoment: [ Abs: 1.04388  Tot: -0.93266 ]
	SubspaceRotationAdjust: set factor to 0.204
ElecMinimize: Iter:  20  G: -375.714628976772303  |grad|_K:  3.525e-08  alpha:  2.213e-01  linmin:  5.147e-04  t[s]:  13395.87
	Linear fluid (dielectric constant: 78.4, screening length: 8.12261 Bohr) occupying 0.711777 of unit cell:	Completed after 0 iterations at t[s]:  13455.67
	Linear fluid (dielectric constant: 78.4, screening length: 8.12261 Bohr) occupying 0.711774 of unit cell:	Completed after 1 iterations at t[s]:  13508.13
	FillingsUpdate:  mu: -0.127200000  nElectrons: 233.441672  magneticMoment: [ Abs: 1.04416  Tot: -0.93241 ]
	SubspaceRotationAdjust: set factor to 0.139
ElecMinimize: Iter:  21  G: -375.714629002230083  |grad|_K:  2.703e-08  alpha:  5.580e-01  linmin:  1.382e-03  t[s]:  13579.11
ElecMinimize: Converged (|Delta G|<1.000000e-07 for 2 iters).
Setting wave functions to eigenvectors of Hamiltonian
Converging empty states (this may take a while): |deigs|: 4.685e-04
Single-point solvation energy estimate, DeltaG = -0.016939461933248

Computing DFT-D3 correction:
# coordination-number C 3.301 3.323 3.336 3.332 3.313 3.291 3.322 3.534 3.329 3.313 3.303 3.341 3.301 3.301 3.323 3.747 3.270 3.303 3.320 3.334 3.326 3.306 3.302 3.331 3.336 3.320 3.301 3.270 3.530 3.322 3.302 3.306 3.317 3.301 3.313 3.327 3.743 3.334 3.292 3.314 3.333 3.333 3.322 3.303 2.990
# coordination-number N 3.171 3.185 3.176 3.186
# coordination-number Ti 6.852
# coordination-number O 2.026 1.171 2.189
# coordination-number H 1.196 0.993 0.997
# diagonal-C6 C 24.27 24.05 23.90 23.95 24.16 24.36 24.06 21.15 23.98 24.15 24.25 23.85 24.27 24.27 24.05 19.00 24.55 24.26 24.08 23.93 24.02 24.23 24.26 23.97 23.91 24.08 24.27 24.55 21.20 24.06 24.26 24.22 24.11 24.27 24.15 24.00 19.02 23.93 24.36 24.14 23.94 23.94 24.06 24.25 25.69
# diagonal-C6 N 15.60 15.60 15.60 15.60
# diagonal-C6 Ti 321.59
# diagonal-C6 O 10.40 12.64 10.38
# diagonal-C6 H 3.04 3.09 3.09
EvdW_6 =   -0.044880
EvdW_8 =   -0.034077

# Ionic positions in cartesian coordinates:
ion C   0.002461000000000   0.090659000000000   0.035211000000000 0
ion C  21.041053000000002   4.043435000000001   0.055195000000000 0
ion C  18.693049999999999   8.044991000000001  43.242557000000005 0
ion C  -7.046992000000000  12.045087000000002  43.237972000000006 0
ion C  -9.373006000000002  16.055339000000004   0.014058000000000 0
ion C   4.682712000000001   0.178006000000000   0.056017000000000 0
ion C   2.288986000000000   4.209373000000001   0.200839000000000 0
ion C  -0.131572000000000   8.023855000000001   0.205641000000000 0
ion C  -2.427594000000003  12.026528000000004   0.070075000000000 0
ion C  -4.719897000000002  16.054004000000003   0.027554000000000 0
ion C   9.378058000000001   0.064519000000000   0.004196000000000 0
ion C   7.082672000000001   4.155137000000001   0.027684000000000 0
ion C  -0.019167000000001  15.949339000000004   0.097932000000000 0
ion C   2.341992000000001  19.929452999999999   0.025651000000000 0
ion C  11.753337999999998   4.028723000000001  43.231787000000004 0
ion C   9.459151000000002   8.022460000000001   0.013712000000000 0
ion C   4.669438000000001  15.840057000000002   0.136776000000000 0
ion C   6.994318000000000  19.941245000000002   0.021412000000000 0
ion C  16.396037000000000   4.017783000000001  43.242644000000006 0
ion C  14.086559999999999   8.039380000000001  43.239443000000009 0
ion C  11.771976000000002  12.042837000000002   0.027468000000000 0
ion C   9.376505000000002  15.996794000000001   0.009170000000000 0
ion C  -0.013639000000000   2.774595000000000   0.087681000000000 0
ion C  -2.429311000000000   6.696097000000001   0.054892000000000 0
ion C  -4.742977000000000  10.694367000000002  43.248527000000010 0
ion C  -7.046983000000002  14.717903000000003   0.006834000000000 0
ion C  -9.375213000000002  18.744274000000004   0.039104000000000 0
ion C   4.679148000000000   2.895589000000001   0.114846000000000 0
ion C  -0.128425000000000  10.699586000000004   0.219396000000000 0
ion C  -2.400585000000001  14.697889000000004   0.071286000000000 0
ion C  -4.721467000000001  18.738989000000004   0.025391000000000 0
ion C   9.388293000000001   2.743428000000001  43.233993000000005 0
ion C   2.286725999999998  14.518199000000005   0.222813000000000 0
ion C  -0.009969000000000  18.634632000000003   0.031577000000000 0
ion C  14.073209000000004   2.676200000000000  43.243639000000009 0
ion C  11.777767000000001   6.702715000000001  43.252333000000007 0
ion C   9.456739999999996  10.717958000000003   0.053205000000000 0
ion C   7.072538000000000  14.585058000000004   0.084826000000000 0
ion C   4.667830000000002  18.558540000000001   0.054892000000000 0
ion C  18.724167000000001   2.684459000000001   0.012631000000000 0
ion C  16.391851000000003   6.691195000000001  43.226033000000008 0
ion C  14.084496000000001  10.711297000000002  43.247272000000009 0
ion C  11.745595000000000  14.717269000000003   0.014967000000000 0
ion C   9.361956000000001  18.675664000000005   0.012025000000000 0
ion C   4.440935000000001   9.173762000000002   5.548314000000001 0
ion N   2.171711999999999  11.911252000000003   0.445280000000000 0
ion N   7.176168999999998  11.997751000000003   0.180898000000000 0
ion N   2.159894000000000   6.808552000000001   0.405225000000000 0
ion N   7.186338000000001   6.738493000000001   0.048880000000000 0
ion Ti   4.884646000000001   9.336981000000000   1.565143000000000 0
ion O   3.917090000000000  10.939130000000000   7.519591000000002 0
ion O   4.926117000000001   7.016948000000001   6.249845000000001 0
ion O   2.593974999999999  14.992288000000006   6.118000000000001 1
ion H   3.296634999999999  12.545077000000001   6.785099000000001 0
ion H   2.436468000000000  16.627978000000002   6.980185000000001 1
ion H   1.254177000000000  13.961216000000004   6.893456000000001 1

# Forces in Cartesian coordinates:
force C  -0.000228884380579   0.000590410533316   0.000024666546354 0
force C  -0.001233103029351  -0.000179716330009  -0.000009117099900 0
force C  -0.000029713324811  -0.000230282713794   0.000051572960956 0
force C  -0.000139502473434   0.000205920989092   0.000064686513234 0
force C  -0.000727328914106  -0.000142359729257   0.000017613788835 0
force C  -0.000190902474797  -0.000535529695686  -0.000003001059269 0
force C  -0.001003464222364   0.000205992370379  -0.000172676173577 0
force C  -0.000955835358082   0.001008236427699  -0.000399440073249 0
force C  -0.000356032682646  -0.000170779600505   0.000049218103478 0
force C   0.000398843064940  -0.000516601039079   0.000063568617529 0
force C  -0.000180954039859   0.000162684040553   0.000012361276259 0
force C   0.000747590131522  -0.000904523741655  -0.000598489037800 0
force C   0.001133692047445   0.000225839957038  -0.000111061024742 0
force C   0.000033348220078  -0.000033546985651   0.000142509009704 0
force C   0.001079606564593   0.000521167335746  -0.000036710389005 0
force C   0.000616912162044   0.001788896258466   0.000005614559357 0
force C  -0.000100520964179  -0.000173040812094  -0.000233121798711 0
force C  -0.000004949295027  -0.000362419819046   0.000003356887554 0
force C  -0.000010448572968   0.000472245538950   0.000002752121507 0
force C  -0.000286502539158  -0.000015606069971  -0.000068743854993 0
force C   0.000162902890140   0.000321225842628   0.000072631775125 0
force C  -0.001433964078459   0.000112242195423  -0.000093310072790 0
force C   0.000923380870736  -0.000750123601753  -0.000077895827989 0
force C   0.000005271886228   0.000219489886743  -0.000068489841915 0
force C   0.000155633226962   0.000170924633655   0.000068286555001 0
force C   0.000087865523327  -0.000342606984997   0.000025133128511 0
force C   0.000414226280033  -0.000140620441061  -0.000026626978717 0
force C   0.000513556663592   0.000093513420084  -0.000048830521335 0
force C   0.000150091089822  -0.000660349220259  -0.000100142793610 0
force C  -0.000423308721697   0.000174982262408   0.000115363696190 0
force C   0.000029730949810   0.000291625704996   0.000024515937245 0
force C  -0.001368241846300  -0.000432612991177  -0.000180683465886 0
force C  -0.000403134319997  -0.001133798724926  -0.000179041322693 0
force C   0.000118169951341  -0.001013898286371   0.000159396020962 0
force C  -0.000683200139887  -0.000030976089814  -0.000056979131699 0
force C   0.000340146270613  -0.000339750469963  -0.000029408335187 0
force C   0.000232276931944  -0.001555899572461  -0.000077559863185 0
force C   0.000331501551457   0.000689557191942  -0.000028935409075 0
force C  -0.000053834908124  -0.000650910098904   0.000140471587219 0
force C   0.000784561502925   0.000414046351237   0.000024270357831 0
force C   0.000092638608714  -0.000460808294723   0.000082812940064 0
force C  -0.000074063872322  -0.000018938231990  -0.000022536426771 0
force C   0.001052349065034  -0.000519556882043   0.000088230660839 0
force C  -0.000176873993491  -0.000210611916450   0.000037166283172 0
force C  -0.006560487014065   0.039128138686222   0.022126169784247 0
force N  -0.000275165926512   0.001018549411503  -0.001066807959858 0
force N  -0.000746689542458   0.000791364144982   0.000696151432375 0
force N   0.000474403736583  -0.000204977343500   0.000349641342345 0
force N  -0.000948186627064  -0.000763039509760   0.000509365386430 0
force Ti  -0.000218095576749   0.001778645883886   0.000238181850251 0
force O   0.011942285850002  -0.059597203923207  -0.009079341892672 0
force O   0.005671894565332  -0.021366751904255   0.001950297653343 0
force O  -0.016779164928218   0.017567429424120  -0.010696795944281 1
force H   0.029573674254255   0.002627363851013  -0.005440565620192 0
force H   0.002625957017827   0.003666649119568   0.003033791486026 1
force H  -0.023895419028154   0.019162771645247  -0.001672773407817 1

# Energy components:
   A_diel =       -0.0522300414704684
   Eewald =     1710.7451433948856447
       EH =     2043.9444024669464852
     Eloc =    -4310.8488854223060116
      Enl =       54.8243660233538961
     EvdW =       -0.0789574657226924
      Exc =     -113.7310525381715820
 Exc_core =        3.3745999665542579
       KE =      206.4195261891909468
  MuShift =       -0.0050484270081648
-------------------------------------
     Etot =     -405.4081358537478650
       TS =        0.0002738414065562
-------------------------------------
        F =     -405.4084096951544325
      muN =      -29.6937806929243706
-------------------------------------
        G =     -375.7146290022300832


Dumping 'jdft.fillings' ... done
Dumping 'jdft.wfns' ... done
Dumping 'jdft.fluidState' ... done
Dumping 'jdft.ionpos' ... done
Dumping 'jdft.lattice' ... done
Dumping 'jdft.eigenvals' ... done
Dumping 'jdft.eigStats' ... 
	eMin: -2.258711 at state 9 ( [ +0.000000 +0.000000 +0.000000 ] spin -1 )
	HOMO: -0.128760 at state 17 ( [ -0.333333 -0.333333 +0.000000 ] spin -1 )
	mu  : -0.127200
	LUMO: -0.124379 at state 1 ( [ +0.000000 +0.333333 +0.000000 ] spin 1 )
	eMax: +0.022513 at state 0 ( [ +0.000000 +0.000000 +0.000000 ] spin 1 )
	HOMO-LUMO gap: +0.004380
	Optical gap  : +0.009005 at state 10 ( [ +0.000000 +0.333333 +0.000000 ] spin -1 )
Dumping 'jdft.Ecomponents' ... done
IonicMinimize: Iter:   0  G: -375.714629002230083  |grad|_K:  1.364e-02  t[s]:  14271.61

#--- Lowdin population analysis ---
# oxidation-state C +0.036 +0.040 +0.035 +0.042 +0.034 +0.039 +0.156 +0.130 +0.025 +0.034 +0.036 +0.165 +0.025 +0.036 +0.042 +0.106 -0.000 +0.036 +0.030 +0.037 +0.029 +0.018 +0.021 +0.025 +0.034 +0.029 +0.036 -0.010 +0.128 +0.039 +0.035 +0.017 +0.168 +0.036 +0.033 +0.028 +0.104 +0.165 +0.039 +0.033 +0.042 +0.037 +0.040 +0.035 +0.158
# magnetic-moments C -0.001 -0.014 -0.003 -0.001 -0.001 +0.000 -0.024 -0.012 -0.000 +0.001 -0.001 -0.013 +0.002 -0.007 -0.007 -0.006 +0.006 -0.010 -0.003 +0.001 +0.001 -0.007 +0.001 +0.000 -0.003 -0.004 -0.008 +0.004 -0.008 -0.013 -0.013 -0.010 -0.025 -0.002 -0.003 -0.002 -0.014 -0.019 -0.001 +0.000 -0.002 -0.000 -0.012 -0.002 -0.040
# oxidation-state N -0.320 -0.332 -0.322 -0.334
# magnetic-moments N +0.005 -0.009 +0.006 -0.015
# oxidation-state Ti +1.364
# magnetic-moments Ti -0.571
# oxidation-state O -0.541 -0.481 -0.703
# magnetic-moments O -0.008 -0.035 -0.000
# oxidation-state H +0.387 +0.481 +0.452
# magnetic-moments H +0.000 -0.000 -0.000


Computing DFT-D3 correction:
# coordination-number C 3.301 3.323 3.336 3.332 3.313 3.291 3.322 3.534 3.329 3.313 3.303 3.341 3.301 3.301 3.323 3.747 3.270 3.303 3.320 3.334 3.326 3.306 3.302 3.331 3.336 3.320 3.301 3.270 3.530 3.322 3.302 3.306 3.317 3.301 3.313 3.327 3.743 3.334 3.292 3.314 3.333 3.333 3.322 3.303 2.990
# coordination-number N 3.171 3.185 3.176 3.186
# coordination-number Ti 6.852
# coordination-number O 2.026 1.171 2.169
# coordination-number H 1.176 0.993 0.996
# diagonal-C6 C 24.27 24.05 23.90 23.95 24.16 24.36 24.06 21.15 23.98 24.15 24.25 23.85 24.27 24.27 24.05 19.00 24.55 24.26 24.08 23.93 24.02 24.23 24.26 23.97 23.91 24.08 24.27 24.55 21.20 24.06 24.26 24.22 24.11 24.27 24.15 24.00 19.02 23.93 24.36 24.14 23.94 23.94 24.06 24.25 25.69
# diagonal-C6 N 15.60 15.60 15.60 15.60
# diagonal-C6 Ti 321.59
# diagonal-C6 O 10.40 12.64 10.38
# diagonal-C6 H 3.04 3.09 3.09
EvdW_6 =   -0.044886
EvdW_8 =   -0.034083
Shifting auxilliary hamiltonian by 0.000028 to set nElectrons=233.441672

-------- Electronic minimization -----------
	Linear fluid (dielectric constant: 78.4, screening length: 8.12261 Bohr) occupying 0.711978 of unit cell:	Completed after 12 iterations at t[s]:  14344.17
	FillingsUpdate:  mu: -0.127200000  nElectrons: 233.441672  magneticMoment: [ Abs: 1.04497  Tot: -0.93313 ]
ElecMinimize: Iter:   0  G: -375.709746730422637  |grad|_K:  6.511e-06  alpha:  1.000e+00
	Linear fluid (dielectric constant: 78.4, screening length: 8.12261 Bohr) occupying 0.711748 of unit cell:	Completed after 13 iterations at t[s]:  14494.82
	Linear fluid (dielectric constant: 78.4, screening length: 8.12261 Bohr) occupying 0.711824 of unit cell:	Completed after 10 iterations at t[s]:  14554.99
	FillingsUpdate:  mu: -0.127200000  nElectrons: 233.439200  magneticMoment: [ Abs: 1.04240  Tot: -0.93067 ]
	SubspaceRotationAdjust: set factor to 0.137
ElecMinimize: Iter:   1  G: -375.715837576164120  |grad|_K:  1.500e-06  alpha:  6.595e-01  linmin:  2.315e-05  t[s]:  14626.64
	Linear fluid (dielectric constant: 78.4, screening length: 8.12261 Bohr) occupying 0.711807 of unit cell:	Completed after 8 iterations at t[s]:  14694.25
	Linear fluid (dielectric constant: 78.4, screening length: 8.12261 Bohr) occupying 0.711807 of unit cell:	Completed after 0 iterations at t[s]:  14744.73
	FillingsUpdate:  mu: -0.127200000  nElectrons: 233.442610  magneticMoment: [ Abs: 1.04474  Tot: -0.93291 ]
	SubspaceRotationAdjust: set factor to 0.127
ElecMinimize: Iter:   2  G: -375.716159702189543  |grad|_K:  5.814e-07  alpha:  6.566e-01  linmin: -6.865e-06  t[s]:  14815.79
	Linear fluid (dielectric constant: 78.4, screening length: 8.12261 Bohr) occupying 0.711751 of unit cell:	Completed after 7 iterations at t[s]:  14882.74
	Linear fluid (dielectric constant: 78.4, screening length: 8.12261 Bohr) occupying 0.711765 of unit cell:	Completed after 3 iterations at t[s]:  14936.68
	FillingsUpdate:  mu: -0.127200000  nElectrons: 233.440237  magneticMoment: [ Abs: 1.04273  Tot: -0.93105 ]
	SubspaceRotationAdjust: set factor to 0.111
ElecMinimize: Iter:   3  G: -375.716195475834297  |grad|_K:  4.019e-07  alpha:  4.859e-01  linmin:  2.263e-06  t[s]:  15008.21
	Linear fluid (dielectric constant: 78.4, screening length: 8.12261 Bohr) occupying 0.711752 of unit cell:	Completed after 3 iterations at t[s]:  15071.08
	Linear fluid (dielectric constant: 78.4, screening length: 8.12261 Bohr) occupying 0.711748 of unit cell:	Completed after 2 iterations at t[s]:  15124.70
	FillingsUpdate:  mu: -0.127200000  nElectrons: 233.441057  magneticMoment: [ Abs: 1.04334  Tot: -0.93163 ]
	SubspaceRotationAdjust: set factor to 0.122
ElecMinimize: Iter:   4  G: -375.716217148147905  |grad|_K:  1.751e-07  alpha:  6.160e-01  linmin: -1.517e-05  t[s]:  15195.68
	Linear fluid (dielectric constant: 78.4, screening length: 8.12261 Bohr) occupying 0.711742 of unit cell:	Completed after 2 iterations at t[s]:  15257.67
	Linear fluid (dielectric constant: 78.4, screening length: 8.12261 Bohr) occupying 0.711740 of unit cell:	Completed after 0 iterations at t[s]:  15308.08
	FillingsUpdate:  mu: -0.127200000  nElectrons: 233.441447  magneticMoment: [ Abs: 1.04362  Tot: -0.93189 ]
	SubspaceRotationAdjust: set factor to 0.14
ElecMinimize: Iter:   5  G: -375.716222356122898  |grad|_K:  9.971e-08  alpha:  7.742e-01  linmin: -2.855e-04  t[s]:  15380.12
	Linear fluid (dielectric constant: 78.4, screening length: 8.12261 Bohr) occupying 0.711736 of unit cell:	Completed after 1 iterations at t[s]:  15441.81
	Linear fluid (dielectric constant: 78.4, screening length: 8.12261 Bohr) occupying 0.711735 of unit cell:	Completed after 0 iterations at t[s]:  15493.13
	FillingsUpdate:  mu: -0.127200000  nElectrons: 233.441426  magneticMoment: [ Abs: 1.04362  Tot: -0.93189 ]
	SubspaceRotationAdjust: set factor to 0.17
ElecMinimize: Iter:   6  G: -375.716224352364236  |grad|_K:  7.706e-08  alpha:  8.965e-01  linmin: -5.904e-05  t[s]:  15563.90
	Linear fluid (dielectric constant: 78.4, screening length: 8.12261 Bohr) occupying 0.711733 of unit cell:	Completed after 2 iterations at t[s]:  15626.77
	Linear fluid (dielectric constant: 78.4, screening length: 8.12261 Bohr) occupying 0.711734 of unit cell:	Completed after 0 iterations at t[s]:  15677.70
	FillingsUpdate:  mu: -0.127200000  nElectrons: 233.441381  magneticMoment: [ Abs: 1.04362  Tot: -0.93190 ]
	SubspaceRotationAdjust: set factor to 0.21
ElecMinimize: Iter:   7  G: -375.716225062499348  |grad|_K:  6.693e-08  alpha:  5.194e-01  linmin:  1.590e-04  t[s]:  15748.41
	Linear fluid (dielectric constant: 78.4, screening length: 8.12261 Bohr) occupying 0.711732 of unit cell:	Completed after 1 iterations at t[s]:  15809.84
	Linear fluid (dielectric constant: 78.4, screening length: 8.12261 Bohr) occupying 0.711731 of unit cell:	Completed after 0 iterations at t[s]:  15860.69
	FillingsUpdate:  mu: -0.127200000  nElectrons: 233.441273  magneticMoment: [ Abs: 1.04359  Tot: -0.93187 ]
	SubspaceRotationAdjust: set factor to 0.278
ElecMinimize: Iter:   8  G: -375.716225760386521  |grad|_K:  4.901e-08  alpha:  7.139e-01  linmin: -3.335e-04  t[s]:  15931.27
	Linear fluid (dielectric constant: 78.4, screening length: 8.12261 Bohr) occupying 0.711731 of unit cell:	Completed after 1 iterations at t[s]:  15992.71
	Linear fluid (dielectric constant: 78.4, screening length: 8.12261 Bohr) occupying 0.711731 of unit cell:	Completed after 0 iterations at t[s]:  16042.89
	FillingsUpdate:  mu: -0.127200000  nElectrons: 233.441329  magneticMoment: [ Abs: 1.04368  Tot: -0.93195 ]
	SubspaceRotationAdjust: set factor to 0.333
ElecMinimize: Iter:   9  G: -375.716226165460796  |grad|_K:  4.892e-08  alpha:  6.721e-01  linmin: -5.775e-05  t[s]:  16114.66
	Linear fluid (dielectric constant: 78.4, screening length: 8.12261 Bohr) occupying 0.711733 of unit cell:	Completed after 1 iterations at t[s]:  16175.98
	Linear fluid (dielectric constant: 78.4, screening length: 8.12261 Bohr) occupying 0.711733 of unit cell:	Completed after 0 iterations at t[s]:  16226.37
	FillingsUpdate:  mu: -0.127200000  nElectrons: 233.441456  magneticMoment: [ Abs: 1.04382  Tot: -0.93209 ]
	SubspaceRotationAdjust: set factor to 0.37
ElecMinimize: Iter:  10  G: -375.716226451468117  |grad|_K:  3.418e-08  alpha:  5.281e-01  linmin: -1.529e-05  t[s]:  16297.38
	Linear fluid (dielectric constant: 78.4, screening length: 8.12261 Bohr) occupying 0.711731 of unit cell:	Completed after 1 iterations at t[s]:  16359.31
	Linear fluid (dielectric constant: 78.4, screening length: 8.12261 Bohr) occupying 0.711731 of unit cell:	Completed after 0 iterations at t[s]:  16409.59
	FillingsUpdate:  mu: -0.127200000  nElectrons: 233.441276  magneticMoment: [ Abs: 1.04371  Tot: -0.93198 ]
	SubspaceRotationAdjust: set factor to 0.401
ElecMinimize: Iter:  11  G: -375.716226577844168  |grad|_K:  2.513e-08  alpha:  4.954e-01  linmin: -9.236e-05  t[s]:  16481.39
	Linear fluid (dielectric constant: 78.4, screening length: 8.12261 Bohr) occupying 0.711730 of unit cell:	Completed after 0 iterations at t[s]:  16540.74
	Linear fluid (dielectric constant: 78.4, screening length: 8.12261 Bohr) occupying 0.711730 of unit cell:	Completed after 0 iterations at t[s]:  16591.59
	FillingsUpdate:  mu: -0.127200000  nElectrons: 233.441137  magneticMoment: [ Abs: 1.04358  Tot: -0.93186 ]
	SubspaceRotationAdjust: set factor to 0.42
ElecMinimize: Iter:  12  G: -375.716226648335123  |grad|_K:  1.767e-08  alpha:  4.764e-01  linmin: -6.686e-07  t[s]:  16662.61
	Linear fluid (dielectric constant: 78.4, screening length: 8.12261 Bohr) occupying 0.711728 of unit cell:	Completed after 1 iterations at t[s]:  16723.31
	Linear fluid (dielectric constant: 78.4, screening length: 8.12261 Bohr) occupying 0.711729 of unit cell:	Completed after 0 iterations at t[s]:  16775.34
ElecMinimize: 	Step increased G by 3.285811e-08, reducing alpha to 1.296735e-02.
	Linear fluid (dielectric constant: 78.4, screening length: 8.12261 Bohr) occupying 0.711730 of unit cell:	Completed after 0 iterations at t[s]:  16892.03
ElecMinimize: 	Step increased G by 2.934320e-08, reducing alpha to 1.296735e-03.
	Linear fluid (dielectric constant: 78.4, screening length: 8.12261 Bohr) occupying 0.711730 of unit cell:	Completed after 0 iterations at t[s]:  17008.73
ElecMinimize: 	Step increased G by 2.907530e-08, reducing alpha to 1.296735e-04.
ElecMinimize: 	Step failed to reduce G after 3 attempts. Quitting step.
ElecMinimize: 	Undoing step.
	Linear fluid (dielectric constant: 78.4, screening length: 8.12261 Bohr) occupying 0.711730 of unit cell:	Completed after 0 iterations at t[s]:  17125.47
ElecMinimize: 	Step failed: resetting search direction.
	FillingsUpdate:  mu: -0.127200000  nElectrons: 233.441136  magneticMoment: [ Abs: 1.04358  Tot: -0.93186 ]
	SubspaceRotationAdjust: set factor to 0.291
ElecMinimize: Iter:  13  G: -375.716226619285806  |grad|_K:  4.489e-08  alpha:  1.297e-04
	Linear fluid (dielectric constant: 78.4, screening length: 8.12261 Bohr) occupying 0.711739 of unit cell:	Completed after 3 iterations at t[s]:  17259.84
[...]
	SubspaceRotationAdjust: set factor to 0.302
ElecMinimize: Iter:   1  G: -375.742988167282533  |grad|_K:  4.091e-07  alpha:  5.781e-01  linmin:  7.773e-05  t[s]:  71633.07
	Linear fluid (dielectric constant: 78.4, screening length: 8.12261 Bohr) occupying 0.710448 of unit cell:	Completed after 9 iterations at t[s]:  71702.21
	Linear fluid (dielectric constant: 78.4, screening length: 8.12261 Bohr) occupying 0.710496 of unit cell:	Completed after 8 iterations at t[s]:  71760.51
	FillingsUpdate:  mu: -0.127200000  nElectrons: 233.439265  magneticMoment: [ Abs: 1.04775  Tot: -0.93564 ]
	SubspaceRotationAdjust: set factor to 0.197
ElecMinimize: Iter:   2  G: -375.742995731073620  |grad|_K:  1.248e-07  alpha:  2.058e-01  linmin: -2.061e-04  t[s]:  71832.38
	Linear fluid (dielectric constant: 78.4, screening length: 8.12261 Bohr) occupying 0.710497 of unit cell:	Completed after 1 iterations at t[s]:  71893.02
ElecMinimize: 	Predicted alpha/alphaT>3.000000, increasing alphaT to 6.175095e-01.
	Linear fluid (dielectric constant: 78.4, screening length: 8.12261 Bohr) occupying 0.710498 of unit cell:	Completed after 2 iterations at t[s]:  71945.71
	Linear fluid (dielectric constant: 78.4, screening length: 8.12261 Bohr) occupying 0.710499 of unit cell:	Completed after 0 iterations at t[s]:  71996.00
	FillingsUpdate:  mu: -0.127200000  nElectrons: 233.439208  magneticMoment: [ Abs: 1.04761  Tot: -0.93550 ]
	SubspaceRotationAdjust: set factor to 0.246
ElecMinimize: Iter:   3  G: -375.742998435909783  |grad|_K:  6.818e-08  alpha:  7.808e-01  linmin: -8.971e-04  t[s]:  72067.37
	Linear fluid (dielectric constant: 78.4, screening length: 8.12261 Bohr) occupying 0.710508 of unit cell:	Completed after 3 iterations at t[s]:  72130.17
	Linear fluid (dielectric constant: 78.4, screening length: 8.12261 Bohr) occupying 0.710507 of unit cell:	Completed after 0 iterations at t[s]:  72181.16
	FillingsUpdate:  mu: -0.127200000  nElectrons: 233.439784  magneticMoment: [ Abs: 1.04805  Tot: -0.93591 ]
	SubspaceRotationAdjust: set factor to 0.207
ElecMinimize: Iter:   4  G: -375.742999190157491  |grad|_K:  5.602e-08  alpha:  7.036e-01  linmin:  6.191e-04  t[s]:  72253.45
	Linear fluid (dielectric constant: 78.4, screening length: 8.12261 Bohr) occupying 0.710504 of unit cell:	Completed after 2 iterations at t[s]:  72316.38
	Linear fluid (dielectric constant: 78.4, screening length: 8.12261 Bohr) occupying 0.710506 of unit cell:	Completed after 2 iterations at t[s]:  72370.20
	FillingsUpdate:  mu: -0.127200000  nElectrons: 233.439472  magneticMoment: [ Abs: 1.04784  Tot: -0.93571 ]
	SubspaceRotationAdjust: set factor to 0.166
ElecMinimize: Iter:   5  G: -375.742999387309453  |grad|_K:  3.408e-08  alpha:  3.252e-01  linmin:  4.864e-04  t[s]:  72441.33
	Linear fluid (dielectric constant: 78.4, screening length: 8.12261 Bohr) occupying 0.710506 of unit cell:	Completed after 0 iterations at t[s]:  72501.61
	Linear fluid (dielectric constant: 78.4, screening length: 8.12261 Bohr) occupying 0.710506 of unit cell:	Completed after 0 iterations at t[s]:  72551.85
	FillingsUpdate:  mu: -0.127200000  nElectrons: 233.439337  magneticMoment: [ Abs: 1.04788  Tot: -0.93575 ]
	SubspaceRotationAdjust: set factor to 0.25
ElecMinimize: Iter:   6  G: -375.742999555553865  |grad|_K:  1.927e-08  alpha:  6.259e-01  linmin: -1.803e-03  t[s]:  72623.19
	Linear fluid (dielectric constant: 78.4, screening length: 8.12261 Bohr) occupying 0.710508 of unit cell:	Completed after 1 iterations at t[s]:  72684.45
	Linear fluid (dielectric constant: 78.4, screening length: 8.12261 Bohr) occupying 0.710507 of unit cell:	Completed after 0 iterations at t[s]:  72736.06
	FillingsUpdate:  mu: -0.127200000  nElectrons: 233.439364  magneticMoment: [ Abs: 1.04794  Tot: -0.93580 ]
	SubspaceRotationAdjust: set factor to 0.223
ElecMinimize: Iter:   7  G: -375.742999560900387  |grad|_K:  3.504e-08  alpha:  2.114e-01  linmin:  2.266e-03  t[s]:  72807.34
	Linear fluid (dielectric constant: 78.4, screening length: 8.12261 Bohr) occupying 0.710507 of unit cell:	Completed after 0 iterations at t[s]:  72868.34
	Linear fluid (dielectric constant: 78.4, screening length: 8.12261 Bohr) occupying 0.710507 of unit cell:	Completed after 0 iterations at t[s]:  72918.51
	FillingsUpdate:  mu: -0.127200000  nElectrons: 233.439326  magneticMoment: [ Abs: 1.04796  Tot: -0.93582 ]
	SubspaceRotationAdjust: set factor to 0.289
ElecMinimize: Iter:   8  G: -375.742999568758307  |grad|_K:  3.422e-08  alpha:  8.681e-02  linmin: -4.546e-07  t[s]:  72989.87
ElecMinimize: Converged (|Delta G|<1.000000e-07 for 2 iters).
Setting wave functions to eigenvectors of Hamiltonian
Converging empty states (this may take a while): |deigs|: 6.331e-08

Computing DFT-D3 correction:
# coordination-number C 3.301 3.323 3.336 3.332 3.313 3.291 3.322 3.534 3.329 3.313 3.303 3.341 3.301 3.301 3.323 3.747 3.270 3.303 3.320 3.334 3.326 3.306 3.302 3.331 3.336 3.320 3.301 3.270 3.530 3.323 3.303 3.306 3.317 3.301 3.313 3.327 3.743 3.334 3.292 3.314 3.333 3.333 3.322 3.303 2.989
# coordination-number N 3.171 3.185 3.176 3.186
# coordination-number Ti 6.851
# coordination-number O 2.018 1.171 2.008
# coordination-number H 1.020 0.992 0.993
# diagonal-C6 C 24.27 24.05 23.90 23.95 24.16 24.36 24.06 21.15 23.98 24.15 24.25 23.85 24.27 24.27 24.05 19.00 24.55 24.26 24.08 23.93 24.02 24.23 24.26 23.97 23.91 24.08 24.27 24.55 21.20 24.06 24.26 24.22 24.11 24.27 24.15 24.00 19.02 23.93 24.36 24.14 23.94 23.94 24.06 24.25 25.69
# diagonal-C6 N 15.60 15.60 15.60 15.60
# diagonal-C6 Ti 321.59
# diagonal-C6 O 10.40 12.64 10.41
# diagonal-C6 H 3.08 3.09 3.09
EvdW_6 =   -0.045085
EvdW_8 =   -0.033925

# Ionic positions in cartesian coordinates:
ion C   0.002461000000000   0.090659000000000   0.035211000000000 0
ion C  21.041053000000002   4.043435000000001   0.055195000000000 0
ion C  18.693049999999999   8.044991000000001  43.242557000000005 0
ion C  -7.046992000000000  12.045087000000002  43.237972000000006 0
ion C  -9.373006000000002  16.055339000000004   0.014058000000000 0
ion C   4.682712000000001   0.178006000000000   0.056017000000000 0
ion C   2.288986000000000   4.209373000000001   0.200839000000000 0
ion C  -0.131572000000000   8.023855000000001   0.205641000000000 0
ion C  -2.427594000000003  12.026528000000004   0.070075000000000 0
ion C  -4.719897000000002  16.054004000000003   0.027554000000000 0
ion C   9.378058000000001   0.064519000000000   0.004196000000000 0
ion C   7.082672000000001   4.155137000000001   0.027684000000000 0
ion C  -0.019167000000001  15.949339000000004   0.097932000000000 0
ion C   2.341992000000001  19.929452999999999   0.025651000000000 0
ion C  11.753337999999998   4.028723000000001  43.231787000000004 0
ion C   9.459151000000002   8.022460000000001   0.013712000000000 0
ion C   4.669438000000001  15.840057000000002   0.136776000000000 0
ion C   6.994318000000000  19.941245000000002   0.021412000000000 0
ion C  16.396037000000000   4.017783000000001  43.242644000000006 0
ion C  14.086559999999999   8.039380000000001  43.239443000000009 0
ion C  11.771976000000002  12.042837000000002   0.027468000000000 0
ion C   9.376505000000002  15.996794000000001   0.009170000000000 0
ion C  -0.013639000000000   2.774595000000000   0.087681000000000 0
ion C  -2.429311000000000   6.696097000000001   0.054892000000000 0
ion C  -4.742977000000000  10.694367000000002  43.248527000000010 0
ion C  -7.046983000000002  14.717903000000003   0.006834000000000 0
ion C  -9.375213000000002  18.744274000000004   0.039104000000000 0
ion C   4.679148000000000   2.895589000000001   0.114846000000000 0
ion C  -0.128425000000000  10.699586000000004   0.219396000000000 0
ion C  -2.400585000000001  14.697889000000004   0.071286000000000 0
ion C  -4.721467000000001  18.738989000000004   0.025391000000000 0
ion C   9.388293000000001   2.743428000000001  43.233993000000005 0
ion C   2.286725999999998  14.518199000000005   0.222813000000000 0
ion C  -0.009969000000000  18.634632000000003   0.031577000000000 0
ion C  14.073209000000004   2.676200000000000  43.243639000000009 0
ion C  11.777767000000001   6.702715000000001  43.252333000000007 0
ion C   9.456739999999996  10.717958000000003   0.053205000000000 0
ion C   7.072538000000000  14.585058000000004   0.084826000000000 0
ion C   4.667830000000002  18.558540000000001   0.054892000000000 0
ion C  18.724167000000001   2.684459000000001   0.012631000000000 0
ion C  16.391851000000003   6.691195000000001  43.226033000000008 0
ion C  14.084496000000001  10.711297000000002  43.247272000000009 0
ion C  11.745595000000000  14.717269000000003   0.014967000000000 0
ion C   9.361956000000001  18.675664000000005   0.012025000000000 0
ion C   4.440935000000001   9.173762000000002   5.548314000000001 0
ion N   2.171711999999999  11.911252000000003   0.445280000000000 0
ion N   7.176168999999998  11.997751000000003   0.180898000000000 0
ion N   2.159894000000000   6.808552000000001   0.405225000000000 0
ion N   7.186338000000001   6.738493000000001   0.048880000000000 0
ion Ti   4.884646000000001   9.336981000000000   1.565143000000000 0
ion O   3.917090000000000  10.939130000000000   7.519591000000002 0
ion O   4.926117000000001   7.016948000000001   6.249845000000001 0
ion O   1.792806161782394  15.280321276358821   6.080948826824215 1
ion H   3.296634999999999  12.545077000000001   6.785099000000001 0
ion H   2.567373370707045  16.718390416725235   6.970943656373319 1
ion H   0.048709667382065  15.254233938988765   6.715040682615887 1

# Forces in Cartesian coordinates:
force C  -0.000273466452621   0.000599376921095   0.000028445820270 0
force C  -0.001203686446782  -0.000183915340017  -0.000014504610844 0
force C  -0.000067696966539  -0.000217072354674   0.000053510481162 0
force C  -0.000160609683306   0.000182089818977   0.000060165643740 0
force C  -0.000711757123225  -0.000121435829884   0.000015412845628 0
force C  -0.000223112097352  -0.000533632740945  -0.000005447601813 0
force C  -0.001003807936215   0.000223905970739  -0.000195210934327 0
force C  -0.000922084287483   0.000938001672281  -0.000368333368637 0
force C  -0.000330446494918  -0.000139178534140   0.000118590990402 0
force C   0.000331963269637  -0.000430446295968   0.000033640553446 0
force C  -0.000048639870825   0.000106715531847   0.000023273574243 0
force C   0.000738568874115  -0.000940095530999  -0.000578068690856 0
force C   0.000857200826810   0.000422873148335  -0.000513890447860 0
force C   0.000013994212542  -0.000086211135351   0.000230554523230 0
force C   0.001046087641524   0.000550842421543  -0.000040356571943 0
force C   0.000596261879298   0.001840171455421  -0.000018652351062 0
force C  -0.000162460148729  -0.000267483019983   0.000042046001578 0
force C  -0.000073621805680  -0.000360507832386  -0.000034269773698 0
force C  -0.000012623009043   0.000466260250746   0.000002199266588 0
force C  -0.000279955839063  -0.000008730361066  -0.000069361292443 0
force C   0.000149336653941   0.000335634327174   0.000061289500317 0
force C  -0.001366671747043   0.000140705486794  -0.000105033933605 0
force C   0.000864154490467  -0.000773185204105  -0.000090826242231 0
force C   0.000055557935529   0.000216401454349  -0.000080642741244 0
force C   0.000171518524493   0.000147370557791   0.000065322950287 0
force C   0.000101227184628  -0.000311184649977   0.000017061139873 0
force C   0.000449693388259  -0.000154904313957  -0.000026362280090 0
force C   0.000522022075401   0.000091510658136  -0.000052576255438 0
force C   0.000403205933969  -0.000470936121019   0.000112056496601 0
force C  -0.000018326257281   0.000288387316050   0.000031933632492 0
force C   0.000025426612560   0.000219963900238   0.000025739489958 0
force C  -0.001355971411382  -0.000444220625713  -0.000168652532721 0
force C  -0.000584358783605  -0.001413999777099  -0.000058695488835 0
force C   0.000066430394220  -0.001309440139043   0.000095156039401 0
force C  -0.000633791159905  -0.000103836851398  -0.000052744936460 0
force C   0.000348161953408  -0.000367623326818  -0.000045343262225 0
force C   0.000266757800287  -0.001629161137620  -0.000154330888105 0
force C   0.000449559993366   0.000707418712642  -0.000065801765461 0
force C  -0.000116110081168  -0.000440518379888   0.000208578932558 0
force C   0.000768450777498   0.000415023955766   0.000021370264919 0
force C   0.000113344742886  -0.000446045935870   0.000083742896595 0
force C  -0.000046879365308  -0.000024009560377  -0.000020423634635 0
force C   0.001036912767653  -0.000538868328990   0.000089918169598 0
force C  -0.000120394476988  -0.000206197074507   0.000027721304125 0
force C  -0.005335891213732   0.038169354567447   0.018245774883859 0
force N  -0.000574477011497   0.001316822724359  -0.001321357068020 0
force N  -0.000574719792408   0.000882515661062   0.000712252996152 0
force N   0.000212217362629  -0.000401374580554   0.000336063895605 0
force N  -0.000766639726213  -0.000806555900241   0.000495307205623 0
force Ti  -0.000347992150095   0.001716393492880   0.000202859471563 0
force O   0.009830627076944  -0.034484885266336  -0.012797724413567 0
force O   0.004591064693880  -0.019405437297446   0.003311727634509 0
force O   0.002113404891586   0.001450164054872   0.000186959716520 1
force H  -0.007023112490427   0.015627646009206  -0.007651257960414 0
force H   0.000257000149666   0.000180481698635  -0.000943211634231 1
force H  -0.001702464610714  -0.000331085932501   0.000095686748297 1

# Energy components:
   A_diel =       -0.0517196719399971
   Eewald =     1708.5428156160182880
       EH =     2041.7918365216385155
     Eloc =    -4306.4340019077772013
      Enl =       54.8131258758541335
     EvdW =       -0.0790105241625782
      Exc =     -113.6909334551498461
 Exc_core =        3.3745936471567823
       KE =      206.3020944892500950
  MuShift =       -0.0050216056714373
-------------------------------------
     Etot =     -405.4362210147833139
       TS =        0.0002607695161910
-------------------------------------
        F =     -405.4364817842995308
      muN =      -29.6934822155412022
-------------------------------------
        G =     -375.7429995687583073


Dumping 'jdft.fillings' ... done
Dumping 'jdft.wfns' ... done
Dumping 'jdft.fluidState' ... done
Dumping 'jdft.ionpos' ... done
Dumping 'jdft.lattice' ... done
Dumping 'jdft.eigenvals' ... done
Dumping 'jdft.eigStats' ... 
	eMin: -2.258369 at state 15 ( [ -0.333333 +0.000000 +0.000000 ] spin -1 )
	HOMO: -0.128663 at state 17 ( [ -0.333333 -0.333333 +0.000000 ] spin -1 )
	mu  : -0.127200
	LUMO: -0.124247 at state 1 ( [ +0.000000 +0.333333 +0.000000 ] spin 1 )
	eMax: +0.022393 at state 0 ( [ +0.000000 +0.000000 +0.000000 ] spin 1 )
	HOMO-LUMO gap: +0.004417
	Optical gap  : +0.009057 at state 10 ( [ +0.000000 +0.333333 +0.000000 ] spin -1 )
Dumping 'jdft.Ecomponents' ... done
IonicMinimize: Iter:  19  G: -375.742999568758307  |grad|_K:  1.086e-03  alpha:  1.000e+00  linmin: -1.771e-03  t[s]:  73190.54
IonicMinimize: Converged (|Delta G|<1.000000e-04 for 2 iters).

#--- Lowdin population analysis ---
# oxidation-state C +0.036 +0.040 +0.035 +0.042 +0.034 +0.039 +0.156 +0.130 +0.025 +0.033 +0.036 +0.165 +0.029 +0.037 +0.042 +0.106 -0.003 +0.036 +0.030 +0.037 +0.029 +0.018 +0.021 +0.025 +0.034 +0.029 +0.036 -0.011 +0.129 +0.040 +0.034 +0.017 +0.169 +0.038 +0.033 +0.028 +0.104 +0.164 +0.039 +0.033 +0.042 +0.037 +0.040 +0.035 +0.160
# magnetic-moments C -0.001 -0.015 -0.003 -0.001 -0.001 +0.000 -0.024 -0.013 -0.000 +0.000 -0.001 -0.013 +0.001 -0.007 -0.007 -0.006 +0.006 -0.010 -0.003 +0.001 +0.001 -0.007 +0.001 +0.000 -0.003 -0.004 -0.008 +0.004 -0.008 -0.013 -0.013 -0.010 -0.025 -0.002 -0.002 -0.002 -0.014 -0.019 -0.001 +0.000 -0.002 -0.000 -0.012 -0.002 -0.041
# oxidation-state N -0.319 -0.333 -0.322 -0.335
# magnetic-moments N +0.005 -0.009 +0.005 -0.015
# oxidation-state Ti +1.370
# magnetic-moments Ti -0.570
# oxidation-state O -0.536 -0.478 -0.714
# magnetic-moments O -0.008 -0.036 -0.000
# oxidation-state H +0.391 +0.464 +0.461
# magnetic-moments H +0.000 -0.000 -0.000


Dumping 'jdft.n_up' ... done
Dumping 'jdft.n_dn' ... done
Dumping 'jdft.tau_up' ... done
Dumping 'jdft.tau_dn' ... done
Dumping 'jdft.eigenvals' ... done
Dumping 'jdft.eigStats' ... 
	eMin: -2.258369 at state 15 ( [ -0.333333 +0.000000 +0.000000 ] spin -1 )
	HOMO: -0.128663 at state 17 ( [ -0.333333 -0.333333 +0.000000 ] spin -1 )
	mu  : -0.127200
	LUMO: -0.124247 at state 1 ( [ +0.000000 +0.333333 +0.000000 ] spin 1 )
	eMax: +0.022393 at state 0 ( [ +0.000000 +0.000000 +0.000000 ] spin 1 )
	HOMO-LUMO gap: +0.004417
	Optical gap  : +0.009057 at state 10 ( [ +0.000000 +0.333333 +0.000000 ] spin -1 )
Dumping 'jdft.kPts' ... done
Dumping 'jdft.dosUp' ... done.
Dumping 'jdft.dosDn' ... done.
End date and time: Wed Sep 21 18:19:53 2022  (Duration: 0-20:21:41.26)
Done!

PROFILER:             augmentDensityGrid     0.958691 +/-     1.183519 s, 3605 calls,   3456.080233 s total
PROFILER:         augmentDensityGridGrad     0.637516 +/-     0.772960 s, 1950 calls,   1243.155743 s total
PROFILER:        augmentDensitySpherical     0.000619 +/-     0.000870 s, 3605 calls,      2.230744 s total
PROFILER:    augmentDensitySphericalGrad     0.000675 +/-     0.001184 s, 2505 calls,      1.689752 s total
PROFILER:                 augmentOverlap     1.953610 +/-     2.811775 s, 7835 calls,  15306.531920 s total
PROFILER:        ColumnBundle::randomize     0.007429 +/-     0.000000 s,    1 calls,      0.007429 s total
PROFILER:                     diagouterI    20.818718 +/-     2.468606 s,  724 calls,  15072.752172 s total
PROFILER:              EdensityAndVscloc    12.224578 +/-     6.448245 s,  722 calls,   8826.145366 s total
PROFILER:                     EnlAndGrad     0.002050 +/-     0.003095 s, 4055 calls,      8.312708 s total
PROFILER:            ExCorrCommunication     0.071261 +/-     0.070882 s, 4565 calls,    325.304376 s total
PROFILER:               ExCorrFunctional     0.028751 +/-     0.004901 s,  786 calls,     22.597973 s total
PROFILER:                    ExCorrTotal     0.774640 +/-     0.147610 s,  786 calls,    608.866785 s total
PROFILER:                   Idag_DiagV_I    36.386425 +/-    12.907847 s,  480 calls,  17465.483973 s total
PROFILER:                    initWeights     2.244306 +/-     0.000000 s,    1 calls,      2.244306 s total
PROFILER:                    inv(matrix)     0.002768 +/-     0.001258 s,  657 calls,      1.818317 s total
PROFILER:            matrix::diagonalize     0.012052 +/-     0.007337 s, 1199 calls,     14.449939 s total
PROFILER:                    matrix::set     0.000003 +/-     0.000003 s, 74266 calls,      0.192164 s total
PROFILER:            orthoMatrix(matrix)     0.002868 +/-     0.001269 s,  767 calls,      2.200075 s total
PROFILER:     RadialFunctionR::transform     0.022094 +/-     0.179679 s,  151 calls,      3.336135 s total
PROFILER:                    reduceKmesh     0.000001 +/-     0.000000 s,    1 calls,      0.000001 s total
PROFILER:   VanDerWaalsD3::energyAndGrad     0.048173 +/-     0.001950 s,   43 calls,      2.071450 s total
PROFILER:               WavefunctionDrag    34.610022 +/-     3.047382 s,   21 calls,    726.810471 s total
PROFILER:                            Y*M     0.879035 +/-     1.099102 s, 13361 calls,  11744.785202 s total
PROFILER:                          Y1^Y2     0.937650 +/-     1.145481 s, 9965 calls,   9343.685245 s total

MEMUSAGE:                   ColumnBundle     1.365987 GB
MEMUSAGE:        complexScalarFieldTilde     0.074158 GB
MEMUSAGE:                    IndexArrays     0.023178 GB
MEMUSAGE:                         matrix     0.020854 GB
MEMUSAGE:                           misc     0.051230 GB
MEMUSAGE:                    ScalarField     0.358429 GB
MEMUSAGE:               ScalarFieldTilde     0.262436 GB
MEMUSAGE:                          Total     1.646313 GB
