
*************** JDFTx 1.7.0 (git hash 5f12716a) ***************

Start date and time: Wed Nov  9 13:08:47 2022
Executable /home/nisi6161/jdftx_alpine/build/jdftx with command-line: -i in
Running on hosts (process indices):  c3cpu-c11-u7-1.rc.int.colorado.edu (0-17)
Divided in process groups (process indices):  0 (0)  1 (1)  2 (2)  3 (3)  4 (4)  5 (5)  6 (6)  7 (7)  8 (8)  9 (9)  10 (10)  11 (11)  12 (12)  13 (13)  14 (14)  15 (15)  16 (16)  17 (17)
Resource initialization completed at t[s]:      0.00
Run totals: 18 processes, 48 threads, 0 GPUs


Input parsed successfully to the following command list (including defaults):

basis kpoint-dependent
converge-empty-states yes
coords-type Cartesian
core-overlap-check none
coulomb-interaction Periodic
davidson-band-ratio 1.1
density-of-states Etol 1.000000e-06 Esigma 1.000000e-03 \
		Complete \
	Total \
	OrthoOrbital C 1   s \
	OrthoOrbital C 1   p \
	OrthoOrbital C 1   px \
	OrthoOrbital C 1   py \
	OrthoOrbital C 1   pz \
	OrthoOrbital C 2   s \
	OrthoOrbital C 2   p \
	OrthoOrbital C 2   px \
	OrthoOrbital C 2   py \
	OrthoOrbital C 2   pz \
	OrthoOrbital C 3   s \
	OrthoOrbital C 3   p \
	OrthoOrbital C 3   px \
	OrthoOrbital C 3   py \
	OrthoOrbital C 3   pz \
	OrthoOrbital C 4   s \
	OrthoOrbital C 4   p \
	OrthoOrbital C 4   px \
	OrthoOrbital C 4   py \
	OrthoOrbital C 4   pz \
	OrthoOrbital C 5   s \
	OrthoOrbital C 5   p \
	OrthoOrbital C 5   px \
	OrthoOrbital C 5   py \
	OrthoOrbital C 5   pz \
	OrthoOrbital C 6   s \
	OrthoOrbital C 6   p \
	OrthoOrbital C 6   px \
	OrthoOrbital C 6   py \
	OrthoOrbital C 6   pz \
	OrthoOrbital C 7   s \
	OrthoOrbital C 7   p \
	OrthoOrbital C 7   px \
	OrthoOrbital C 7   py \
	OrthoOrbital C 7   pz \
	OrthoOrbital C 8   s \
	OrthoOrbital C 8   p \
	OrthoOrbital C 8   px \
	OrthoOrbital C 8   py \
	OrthoOrbital C 8   pz \
	OrthoOrbital C 9   s \
	OrthoOrbital C 9   p \
	OrthoOrbital C 9   px \
	OrthoOrbital C 9   py \
	OrthoOrbital C 9   pz \
	OrthoOrbital C 10   s \
	OrthoOrbital C 10   p \
	OrthoOrbital C 10   px \
	OrthoOrbital C 10   py \
	OrthoOrbital C 10   pz \
	OrthoOrbital C 11   s \
	OrthoOrbital C 11   p \
	OrthoOrbital C 11   px \
	OrthoOrbital C 11   py \
	OrthoOrbital C 11   pz \
	OrthoOrbital C 12   s \
	OrthoOrbital C 12   p \
	OrthoOrbital C 12   px \
	OrthoOrbital C 12   py \
	OrthoOrbital C 12   pz \
	OrthoOrbital C 13   s \
	OrthoOrbital C 13   p \
	OrthoOrbital C 13   px \
	OrthoOrbital C 13   py \
	OrthoOrbital C 13   pz \
	OrthoOrbital C 14   s \
	OrthoOrbital C 14   p \
	OrthoOrbital C 14   px \
	OrthoOrbital C 14   py \
	OrthoOrbital C 14   pz \
	OrthoOrbital C 15   s \
	OrthoOrbital C 15   p \
	OrthoOrbital C 15   px \
	OrthoOrbital C 15   py \
	OrthoOrbital C 15   pz \
	OrthoOrbital C 16   s \
	OrthoOrbital C 16   p \
	OrthoOrbital C 16   px \
	OrthoOrbital C 16   py \
	OrthoOrbital C 16   pz \
	OrthoOrbital C 17   s \
	OrthoOrbital C 17   p \
	OrthoOrbital C 17   px \
	OrthoOrbital C 17   py \
	OrthoOrbital C 17   pz \
	OrthoOrbital C 18   s \
	OrthoOrbital C 18   p \
	OrthoOrbital C 18   px \
	OrthoOrbital C 18   py \
	OrthoOrbital C 18   pz \
	OrthoOrbital C 19   s \
	OrthoOrbital C 19   p \
	OrthoOrbital C 19   px \
	OrthoOrbital C 19   py \
	OrthoOrbital C 19   pz \
	OrthoOrbital C 20   s \
	OrthoOrbital C 20   p \
	OrthoOrbital C 20   px \
	OrthoOrbital C 20   py \
	OrthoOrbital C 20   pz \
	OrthoOrbital C 21   s \
	OrthoOrbital C 21   p \
	OrthoOrbital C 21   px \
	OrthoOrbital C 21   py \
	OrthoOrbital C 21   pz \
	OrthoOrbital C 22   s \
	OrthoOrbital C 22   p \
	OrthoOrbital C 22   px \
	OrthoOrbital C 22   py \
	OrthoOrbital C 22   pz \
	OrthoOrbital C 23   s \
	OrthoOrbital C 23   p \
	OrthoOrbital C 23   px \
	OrthoOrbital C 23   py \
	OrthoOrbital C 23   pz \
	OrthoOrbital C 24   s \
	OrthoOrbital C 24   p \
	OrthoOrbital C 24   px \
	OrthoOrbital C 24   py \
	OrthoOrbital C 24   pz \
	OrthoOrbital C 25   s \
	OrthoOrbital C 25   p \
	OrthoOrbital C 25   px \
	OrthoOrbital C 25   py \
	OrthoOrbital C 25   pz \
	OrthoOrbital C 26   s \
	OrthoOrbital C 26   p \
	OrthoOrbital C 26   px \
	OrthoOrbital C 26   py \
	OrthoOrbital C 26   pz \
	OrthoOrbital C 27   s \
	OrthoOrbital C 27   p \
	OrthoOrbital C 27   px \
	OrthoOrbital C 27   py \
	OrthoOrbital C 27   pz \
	OrthoOrbital C 28   s \
	OrthoOrbital C 28   p \
	OrthoOrbital C 28   px \
	OrthoOrbital C 28   py \
	OrthoOrbital C 28   pz \
	OrthoOrbital C 29   s \
	OrthoOrbital C 29   p \
	OrthoOrbital C 29   px \
	OrthoOrbital C 29   py \
	OrthoOrbital C 29   pz \
	OrthoOrbital C 30   s \
	OrthoOrbital C 30   p \
	OrthoOrbital C 30   px \
	OrthoOrbital C 30   py \
	OrthoOrbital C 30   pz \
	OrthoOrbital C 31   s \
	OrthoOrbital C 31   p \
	OrthoOrbital C 31   px \
	OrthoOrbital C 31   py \
	OrthoOrbital C 31   pz \
	OrthoOrbital C 32   s \
	OrthoOrbital C 32   p \
	OrthoOrbital C 32   px \
	OrthoOrbital C 32   py \
	OrthoOrbital C 32   pz \
	OrthoOrbital C 33   s \
	OrthoOrbital C 33   p \
	OrthoOrbital C 33   px \
	OrthoOrbital C 33   py \
	OrthoOrbital C 33   pz \
	OrthoOrbital C 34   s \
	OrthoOrbital C 34   p \
	OrthoOrbital C 34   px \
	OrthoOrbital C 34   py \
	OrthoOrbital C 34   pz \
	OrthoOrbital C 35   s \
	OrthoOrbital C 35   p \
	OrthoOrbital C 35   px \
	OrthoOrbital C 35   py \
	OrthoOrbital C 35   pz \
	OrthoOrbital C 36   s \
	OrthoOrbital C 36   p \
	OrthoOrbital C 36   px \
	OrthoOrbital C 36   py \
	OrthoOrbital C 36   pz \
	OrthoOrbital C 37   s \
	OrthoOrbital C 37   p \
	OrthoOrbital C 37   px \
	OrthoOrbital C 37   py \
	OrthoOrbital C 37   pz \
	OrthoOrbital C 38   s \
	OrthoOrbital C 38   p \
	OrthoOrbital C 38   px \
	OrthoOrbital C 38   py \
	OrthoOrbital C 38   pz \
	OrthoOrbital C 39   s \
	OrthoOrbital C 39   p \
	OrthoOrbital C 39   px \
	OrthoOrbital C 39   py \
	OrthoOrbital C 39   pz \
	OrthoOrbital C 40   s \
	OrthoOrbital C 40   p \
	OrthoOrbital C 40   px \
	OrthoOrbital C 40   py \
	OrthoOrbital C 40   pz \
	OrthoOrbital C 41   s \
	OrthoOrbital C 41   p \
	OrthoOrbital C 41   px \
	OrthoOrbital C 41   py \
	OrthoOrbital C 41   pz \
	OrthoOrbital C 42   s \
	OrthoOrbital C 42   p \
	OrthoOrbital C 42   px \
	OrthoOrbital C 42   py \
	OrthoOrbital C 42   pz \
	OrthoOrbital C 43   s \
	OrthoOrbital C 43   p \
	OrthoOrbital C 43   px \
	OrthoOrbital C 43   py \
	OrthoOrbital C 43   pz \
	OrthoOrbital C 44   s \
	OrthoOrbital C 44   p \
	OrthoOrbital C 44   px \
	OrthoOrbital C 44   py \
	OrthoOrbital C 44   pz \
	OrthoOrbital C 45   s \
	OrthoOrbital C 45   p \
	OrthoOrbital C 45   px \
	OrthoOrbital C 45   py \
	OrthoOrbital C 45   pz \
	OrthoOrbital N 1   s \
	OrthoOrbital N 1   p \
	OrthoOrbital N 1   px \
	OrthoOrbital N 1   py \
	OrthoOrbital N 1   pz \
	OrthoOrbital N 2   s \
	OrthoOrbital N 2   p \
	OrthoOrbital N 2   px \
	OrthoOrbital N 2   py \
	OrthoOrbital N 2   pz \
	OrthoOrbital N 3   s \
	OrthoOrbital N 3   p \
	OrthoOrbital N 3   px \
	OrthoOrbital N 3   py \
	OrthoOrbital N 3   pz \
	OrthoOrbital N 4   s \
	OrthoOrbital N 4   p \
	OrthoOrbital N 4   px \
	OrthoOrbital N 4   py \
	OrthoOrbital N 4   pz \
	OrthoOrbital Ti 1   s \
	OrthoOrbital Ti 1   p \
	OrthoOrbital Ti 1   px \
	OrthoOrbital Ti 1   py \
	OrthoOrbital Ti 1   pz \
	OrthoOrbital Ti 1   d \
	OrthoOrbital Ti 1   dxy \
	OrthoOrbital Ti 1   dyz \
	OrthoOrbital Ti 1   dz2 \
	OrthoOrbital Ti 1   dxz \
	OrthoOrbital Ti 1   dx2-y2 \
	OrthoOrbital O 1   s \
	OrthoOrbital O 1   p \
	OrthoOrbital O 1   px \
	OrthoOrbital O 1   py \
	OrthoOrbital O 1   pz \
	OrthoOrbital O 2   s \
	OrthoOrbital O 2   p \
	OrthoOrbital O 2   px \
	OrthoOrbital O 2   py \
	OrthoOrbital O 2   pz \
	OrthoOrbital O 3   s \
	OrthoOrbital O 3   p \
	OrthoOrbital O 3   px \
	OrthoOrbital O 3   py \
	OrthoOrbital O 3   pz \
	OrthoOrbital H 1   s \
	OrthoOrbital H 2   s \
	OrthoOrbital H 3   s
dump End ElecDensity KEdensity BandEigs EigStats RhoAtom DOS Kpoints
dump Ionic State IonicPositions Lattice EigStats Ecomponents
dump 
dump 
dump 
dump 
dump 
dump 
dump 
dump 
dump-name jdft.$VAR
elec-cutoff 20
elec-eigen-algo Davidson
elec-ex-corr gga-PBE
elec-initial-magnetization 0.000000 no
elec-n-bands 140
elec-smearing Fermi 0.001
electronic-minimize  \
	dirUpdateScheme      FletcherReeves \
	linminMethod         DirUpdateRecommended \
	nIterations          100 \
	history              15 \
	knormThreshold       0 \
	energyDiffThreshold  1e-07 \
	nEnergyDiff          2 \
	alphaTstart          1 \
	alphaTmin            1e-10 \
	updateTestStepSize   yes \
	alphaTreduceFactor   0.1 \
	alphaTincreaseFactor 3 \
	nAlphaAdjustMax      3 \
	wolfeEnergy          0.0001 \
	wolfeGradient        0.9 \
	fdTest               no
exchange-regularization WignerSeitzTruncated
fluid LinearPCM 298.000000 1.013250
fluid-anion F- 0.5 MeanFieldLJ \
	epsBulk 1 \
	pMol 0 \
	epsInf 1 \
	Pvap 0 \
	sigmaBulk 0 \
	Rvdw 2.24877 \
	Res 0 \
	tauNuc 343133
fluid-cation Na+ 0.5 MeanFieldLJ \
	epsBulk 1 \
	pMol 0 \
	epsInf 1 \
	Pvap 0 \
	sigmaBulk 0 \
	Rvdw 2.19208 \
	Res 0 \
	tauNuc 343133
fluid-ex-corr lda-TF lda-PZ
fluid-gummel-loop 10 1.000000e-05
fluid-minimize  \
	dirUpdateScheme      PolakRibiere \
	linminMethod         DirUpdateRecommended \
	nIterations          400 \
	history              15 \
	knormThreshold       1e-11 \
	energyDiffThreshold  0 \
	nEnergyDiff          2 \
	alphaTstart          1 \
	alphaTmin            1e-10 \
	updateTestStepSize   yes \
	alphaTreduceFactor   0.1 \
	alphaTincreaseFactor 3 \
	nAlphaAdjustMax      6 \
	wolfeEnergy          0.0001 \
	wolfeGradient        0.9 \
	fdTest               no
fluid-solvent H2O 55.338 ScalarEOS \
	epsBulk 78.4 \
	pMol 0.92466 \
	epsInf 1.77 \
	Pvap 1.06736e-10 \
	sigmaBulk 4.62e-05 \
	Rvdw 2.61727 \
	Res 1.42 \
	tauNuc 343133 \
	poleEl 15 7 1
forces-output-coords Positions
ion C   0.056442000000000   0.036494000000000   0.095034000000000 0
ion C  -2.334179000000000   3.975471000000001   0.071416000000000 0
ion C  -4.680519000000001   7.979024000000002  43.212494000000007 0
ion C  -6.989935000000002  11.997408000000004  43.213403000000007 0
ion C  -9.317672000000002  16.007479000000004   0.047841000000000 0
ion C   4.739284000000000   0.137170000000000   0.109352000000000 0
ion C   2.348868000000000   4.161517000000000   0.232762000000000 0
ion C  -0.068906000000000   7.981148000000001   0.178259000000000 0
ion C  -2.374736000000000  11.984433000000001   0.047841000000000 0
ion C  -4.667273000000000  16.011908000000002   0.047712000000000 0
ion C   9.433198000000003   0.026076000000000   0.046284000000000 0
ion C   7.148380000000001   4.134717000000001   0.104983000000000 0
ion C   0.027862999999998  15.912167000000004   0.126654000000000 0
ion C   2.403328999999999  19.877169000000006   0.071632000000000 0
ion C  11.818165999999998   3.978397000000001  43.228845000000007 0
ion C   9.530216000000001   7.968308000000001   0.033740000000000 0
ion C   4.725673000000000  15.778712000000002   0.228610000000000 0
ion C   7.053079999999998  19.885288000000003   0.093390000000000 0
ion C  16.459567000000000   3.965441000000001  43.239659000000010 0
ion C  14.152841999999998   7.988376000000001  43.178279000000011 0
ion C  11.831556000000004  11.990871000000000   0.018124000000000 0
ion C   9.426534000000002  15.930256000000004   0.098149000000000 0
ion C   0.044255000000000   2.720313000000001   0.124492000000000 0
ion C  -2.365740000000002   6.650059000000001   0.040012000000000 0
ion C  -4.685065000000002  10.648146000000002  43.220194000000006 0
ion C  -6.991872000000002  14.671380000000001   0.014491000000000 0
ion C  -9.316527000000002  18.696776000000003   0.091141000000000 0
ion C   4.740990000000000   2.858508000000001   0.176832000000000 0
ion C  -0.067288000000000  10.664739000000003   0.175188000000000 0
ion C  -2.347891000000001  14.654836000000001   0.075872000000000 0
ion C  -4.665738000000000  18.696796000000003   0.069945000000000 0
ion C   9.448038000000002   2.704889000000001   0.015918000000000 0
ion C   2.328875999999999  14.472704000000004   0.253222000000000 0
ion C   0.042807000000000  18.592635999999999   0.074012000000000 0
ion C  14.138356000000002   2.622343000000000  43.254064000000007 0
ion C  11.845373999999998   6.649618000000001  43.206395000000008 0
ion C   9.522735000000001  10.658995000000004   0.092179000000000 0
ion C   7.123821999999999  14.501563000000003   0.198330000000000 0
ion C   4.727110000000000  18.499391000000003   0.131932000000000 0
ion C  18.786994000000000   2.630840000000001   0.043040000000000 0
ion C  16.456574000000000   6.640370000000002  43.189006000000006 0
ion C  14.145727000000001  10.660509000000001  43.200815000000006 0
ion C  11.802070999999998  14.663286000000001   0.055801000000000 0
ion C   9.416118000000003  18.613300000000002   0.092828000000000 0
ion C   4.317589000000000   9.815606000000002   5.585385000000001 1
ion N   2.214796000000001  11.884731000000004   0.376762000000000 0
ion N   7.237092999999999  11.904647000000004   0.294619000000000 0
ion N   2.221766000000001   6.762573000000001   0.391686000000000 0
ion N   7.259981000000001   6.714748000000000   0.162471000000000 0
ion Ti   4.841613999999999   9.294552000000001   1.775499000000000 0
ion O   3.571097999999999  10.438956000000001   7.850415000000002 1
ion O   6.084524000000000   8.178338000000002   5.291155000000001 1
ion O   0.139581000000000  13.719534000000003   7.173194000000001 1
ion H   2.127393999999998  11.788401000000002   7.646808000000002 1
ion H   0.589109000000001  15.356109000000002   7.939134000000002 1
ion H  -1.499129000000001  13.259526000000003   7.927671000000001 1
ion-species /projects/musgravc/apps/jdftx-1.6.0/build/pseudopotentials/GBRV_v1.5/$ID_pbe_v1.uspp
ion-species /projects/musgravc/apps/jdftx-1.6.0/build/pseudopotentials/GBRV_v1.5/$ID_pbe_v1.2.uspp
ion-species /projects/musgravc/apps/jdftx-1.6.0/build/pseudopotentials/GBRV_v1.5/$ID_pbe_v1.4.uspp
ion-species /projects/musgravc/apps/jdftx-1.6.0/build/pseudopotentials/GBRV_v1.5/$ID_pbe_v1.5.uspp
ion-width Ecut
ionic-minimize  \
	dirUpdateScheme      L-BFGS \
	linminMethod         DirUpdateRecommended \
	nIterations          100 \
	history              15 \
	knormThreshold       0.0001 \
	energyDiffThreshold  0.0001 \
	nEnergyDiff          2 \
	alphaTstart          1 \
	alphaTmin            1e-10 \
	updateTestStepSize   yes \
	alphaTreduceFactor   0.1 \
	alphaTincreaseFactor 3 \
	nAlphaAdjustMax      3 \
	wolfeEnergy          0.0001 \
	wolfeGradient        0.9 \
	fdTest               no
kpoint   0.000000000000   0.000000000000   0.000000000000  1.00000000000000
kpoint-folding 3 3 1 
latt-move-scale 0 0 0
latt-scale 1 1 1 
lattice  \
	  23.436261999999999  -11.733459000000000    0.000000000000000  \
	   0.017994000000000   19.941849000000001    0.000000000000000  \
	   0.000000000000000    0.000000000000000   43.256312999999999 
lattice-minimize  \
	dirUpdateScheme      L-BFGS \
	linminMethod         DirUpdateRecommended \
	nIterations          0 \
	history              15 \
	knormThreshold       0 \
	energyDiffThreshold  1e-06 \
	nEnergyDiff          2 \
	alphaTstart          1 \
	alphaTmin            1e-10 \
	updateTestStepSize   yes \
	alphaTreduceFactor   0.1 \
	alphaTincreaseFactor 3 \
	nAlphaAdjustMax      3 \
	wolfeEnergy          0.0001 \
	wolfeGradient        0.9 \
	fdTest               no
lcao-params 30 1e-06 0.001
pcm-variant CANDLE
spintype z-spin
subspace-rotation-factor 1 yes
symmetries none
symmetry-threshold 0.0001
target-mu -0.1272 no

van-der-waals D3
vibrations \
	dr 0.01\
	centralDiff no\
	useConstraints yes\
	translationSym yes\
	rotationSym no\
	omegaMin 0.0002\
	T 298\
	omegaResolution 0.0001


Applied RMS atom displacement 0 bohrs to make symmetries exact.
Applied RMS atom displacement 0 bohrs to make symmetries exact.

---------- Initializing the Grid ----------
R = 
[      23.4363     -11.7335            0  ]
[     0.017994      19.9418            0  ]
[            0            0      43.2563  ]
unit cell volume = 20225.5
G =
[   0.267976   0.157673         -0  ]
[ -0.000241801   0.314933          0  ]
[          0         -0   0.145255  ]
Minimum fftbox size, Smin = [  96  96  176  ]
Chosen fftbox size, S = [  96  96  180  ]

---------- Exchange Correlation functional ----------
Initalized PBE GGA exchange.
Initalized PBE GGA correlation.

---------- Setting up pseudopotentials ----------
Width of ionic core gaussian charges (only for fluid interactions / plotting) set to 0.397384

Reading pseudopotential file '/projects/musgravc/apps/jdftx-1.6.0/build/pseudopotentials/GBRV_v1.5/c_pbe_v1.2.uspp':
  Title: C.  Created by USPP 7.3.6 on 3-2-2014
  Reference state energy: -5.406344.  4 valence electrons in orbitals:
    |200>  occupation: 2  eigenvalue: -0.504890
    |210>  occupation: 2  eigenvalue: -0.194356
  lMax: 1  lLocal: 2  QijEcut: 5
  4 projectors sampled on a log grid with 503 points:
    l: 0  eig: -0.504890  rCut: 1.3
    l: 0  eig: 0.000000  rCut: 1.3
    l: 1  eig: -0.194357  rCut: 1.3
    l: 1  eig: 0.000000  rCut: 1.3
  Partial core density with radius 1.1
  Transforming core density to a uniform radial grid of dG=0.02 with 1464 points.
  Transforming local potential to a uniform radial grid of dG=0.02 with 1464 points.
  Transforming nonlocal projectors to a uniform radial grid of dG=0.02 with 432 points.
  Transforming density augmentations to a uniform radial grid of dG=0.02 with 1464 points.
  Transforming atomic orbitals to a uniform radial grid of dG=0.02 with 432 points.
  Core radius for overlap checks: 1.30 bohrs.

Reading pseudopotential file '/projects/musgravc/apps/jdftx-1.6.0/build/pseudopotentials/GBRV_v1.5/n_pbe_v1.2.uspp':
  Title: N.  Created by USPP 7.3.6 on 3-2-2014
  Reference state energy: -9.763716.  5 valence electrons in orbitals:
    |200>  occupation: 2  eigenvalue: -0.681964
    |210>  occupation: 3  eigenvalue: -0.260726
  lMax: 1  lLocal: 2  QijEcut: 6
  4 projectors sampled on a log grid with 491 points:
    l: 0  eig: -0.681964  rCut: 1.15
    l: 0  eig: 0.000000  rCut: 1.15
    l: 1  eig: -0.260729  rCut: 1.2
    l: 1  eig: 0.500000  rCut: 1.2
  Partial core density with radius 0.8
  Transforming core density to a uniform radial grid of dG=0.02 with 1464 points.
  Transforming local potential to a uniform radial grid of dG=0.02 with 1464 points.
  Transforming nonlocal projectors to a uniform radial grid of dG=0.02 with 432 points.
  Transforming density augmentations to a uniform radial grid of dG=0.02 with 1464 points.
  Transforming atomic orbitals to a uniform radial grid of dG=0.02 with 432 points.
  Core radius for overlap checks: 1.20 bohrs.

Reading pseudopotential file '/projects/musgravc/apps/jdftx-1.6.0/build/pseudopotentials/GBRV_v1.5/ti_pbe_v1.4.uspp':
  Title: Ti.  Created by USPP 7.3.6 on 31-3-15
  Reference state energy: -59.020943.  12 valence electrons in orbitals:
    |300>  occupation: 2  eigenvalue: -2.777623
    |310>  occupation: 6  eigenvalue: -1.894596
    |400>  occupation: 2  eigenvalue: -0.438610
    |320>  occupation: 1  eigenvalue: -0.583119
  lMax: 2  lLocal: 3  QijEcut: 6
  6 projectors sampled on a log grid with 597 points:
    l: 0  eig: -2.777624  rCut: 1.8
    l: 0  eig: -0.438611  rCut: 1.8
    l: 1  eig: -1.894596  rCut: 1.8
    l: 1  eig: 0.500000  rCut: 1.8
    l: 2  eig: -0.583118  rCut: 1.8
    l: 2  eig: 0.150000  rCut: 1.8
  Partial core density with radius 0.8
  Transforming core density to a uniform radial grid of dG=0.02 with 1464 points.
  Transforming local potential to a uniform radial grid of dG=0.02 with 1464 points.
  Transforming nonlocal projectors to a uniform radial grid of dG=0.02 with 432 points.
  Transforming density augmentations to a uniform radial grid of dG=0.02 with 1464 points.
  Transforming atomic orbitals to a uniform radial grid of dG=0.02 with 432 points.
  Core radius for overlap checks: 1.80 bohrs.

Reading pseudopotential file '/projects/musgravc/apps/jdftx-1.6.0/build/pseudopotentials/GBRV_v1.5/o_pbe_v1.2.uspp':
  Title: O.  Created by USPP 7.3.6 on 3-2-2014
  Reference state energy: -15.894388.  6 valence electrons in orbitals:
    |200>  occupation: 2  eigenvalue: -0.878823
    |210>  occupation: 4  eigenvalue: -0.332131
  lMax: 2  lLocal: 2  QijEcut: 6
  5 projectors sampled on a log grid with 511 points:
    l: 0  eig: -0.878823  rCut: 1.25
    l: 0  eig: 0.000000  rCut: 1.25
    l: 1  eig: -0.332132  rCut: 1.25
    l: 1  eig: 0.000000  rCut: 1.25
    l: 2  eig: 1.000000  rCut: 1.25
  Partial core density with radius 0.7
  Transforming core density to a uniform radial grid of dG=0.02 with 1464 points.
  Transforming local potential to a uniform radial grid of dG=0.02 with 1464 points.
  Transforming nonlocal projectors to a uniform radial grid of dG=0.02 with 432 points.
  Transforming density augmentations to a uniform radial grid of dG=0.02 with 1464 points.
  Transforming atomic orbitals to a uniform radial grid of dG=0.02 with 432 points.
  Core radius for overlap checks: 1.25 bohrs.

Reading pseudopotential file '/projects/musgravc/apps/jdftx-1.6.0/build/pseudopotentials/GBRV_v1.5/h_pbe_v1.4.uspp':
  Title: H.  Created by USPP 7.3.6 on 2-4-15
  Reference state energy: -0.458849.  1 valence electrons in orbitals:
    |100>  occupation: 1  eigenvalue: -0.238595
  lMax: 0  lLocal: 1  QijEcut: 6
  2 projectors sampled on a log grid with 395 points:
    l: 0  eig: -0.238595  rCut: 1.2
    l: 0  eig: 1.000000  rCut: 1.2
  Transforming local potential to a uniform radial grid of dG=0.02 with 1464 points.
  Transforming nonlocal projectors to a uniform radial grid of dG=0.02 with 432 points.
  Transforming density augmentations to a uniform radial grid of dG=0.02 with 1464 points.
  Transforming atomic orbitals to a uniform radial grid of dG=0.02 with 432 points.
  Core radius for overlap checks: 1.20 bohrs.

Initialized 5 species with 56 total atoms.

Folded 1 k-points by 3x3x1 to 9 k-points.

---------- Setting up k-points, bands, fillings ----------
No reducable k-points. 
Computing the number of bands and number of electrons
Calculating initial fillings.
nElectrons: 233.000000   nBands: 140   nStates: 18

----- Setting up reduced wavefunction bases (one per k-point) -----
average nbasis = 86412.556 , ideal nbasis = 86404.907

----- Initializing Supercell corresponding to k-point mesh -----
Lattice vector linear combinations in supercell:
[   3   0   0  ]
[   0   3   0  ]
[   0   0   1  ]
Supercell lattice vectors:
[  70.3088  -35.2004  0  ]
[  0.053982  59.8255  0  ]
[  0  0  43.2563  ]

Initializing DFT-D3 calculator:
	Parameters set for gga-PBE functional
	s6:  1.000  s_r6:  1.217
	s8:  0.722  s_r8:  1.000
	Per-atom parameters loaded for:
	 C:  sqrtQ[a0]:  3.105  Rcov[a0]:  1.417  CN: [ 0.00 0.99 2.00 3.00 3.98 ]
	 N:  sqrtQ[a0]:  2.712  Rcov[a0]:  1.342  CN: [ 0.00 0.99 2.01 2.99 ]
	Ti:  sqrtQ[a0]:  6.288  Rcov[a0]:  2.305  CN: [ 0.00 1.83 3.87 ]
	 O:  sqrtQ[a0]:  2.594  Rcov[a0]:  1.191  CN: [ 0.00 0.99 1.99 ]
	 H:  sqrtQ[a0]:  2.007  Rcov[a0]:  0.605  CN: [ 0.91 0.00 ]

Initializing DFT-D2 calculator for fluid / solvation:
	 C:  C6:   30.35 Eh-a0^6  R0: 2.744 a0
	 N:  C6:   21.33 Eh-a0^6  R0: 2.640 a0
	Ti:  C6:  187.33 Eh-a0^6  R0: 2.952 a0
	 O:  C6:   12.14 Eh-a0^6  R0: 2.536 a0
	 H:  C6:    2.43 Eh-a0^6  R0: 1.892 a0

---------- Setting up ewald sum ----------
Optimum gaussian width for ewald sums = 5.557061 bohr.
Real space sum over 567 unit cells with max indices [  4  4  3  ]
Reciprocal space sum over 7803 terms with max indices [  8  8  13  ]

Computing DFT-D3 correction:
# coordination-number C 3.299 3.322 3.336 3.332 3.312 3.288 3.321 3.547 3.330 3.313 3.302 3.331 3.304 3.300 3.324 3.634 3.267 3.301 3.320 3.334 3.326 3.302 3.300 3.328 3.335 3.320 3.300 3.267 3.544 3.325 3.301 3.305 3.320 3.301 3.313 3.329 3.641 3.326 3.289 3.312 3.332 3.334 3.321 3.300 3.016
# coordination-number N 3.173 3.178 3.173 3.182
# coordination-number Ti 7.429
# coordination-number O 2.002 1.984 2.074
# coordination-number H 1.068 0.992 0.992
# diagonal-C6 C 24.29 24.06 23.91 23.95 24.17 24.39 24.08 20.96 23.97 24.15 24.26 23.96 24.25 24.28 24.04 19.90 24.58 24.27 24.08 23.93 24.02 24.26 24.28 24.00 23.92 24.08 24.29 24.58 21.01 24.03 24.27 24.23 24.08 24.27 24.16 23.99 19.82 24.02 24.39 24.16 23.95 23.93 24.07 24.28 25.64
# diagonal-C6 N 15.60 15.60 15.60 15.60
# diagonal-C6 Ti 321.59
# diagonal-C6 O 10.41 10.41 10.39
# diagonal-C6 H 3.07 3.09 3.09
EvdW_6 =   -0.043592
EvdW_8 =   -0.033237

---------- Allocating electronic variables ----------
Initializing wave functions:  linear combination of atomic orbitals
C pseudo-atom occupations:   s ( 2 )  p ( 2 )
N pseudo-atom occupations:   s ( 2 )  p ( 3 )
Ti pseudo-atom occupations:   s ( 2 0 )  p ( 6 )  d ( 4 )
O pseudo-atom occupations:   s ( 2 )  p ( 4 )
H pseudo-atom occupations:   s ( 1 )
	FillingsUpdate:  mu: -0.127200000  nElectrons: 233.000000  magneticMoment: [ Abs: 0.00449  Tot: +0.00003 ]
LCAOMinimize: Iter:   0  G: -369.4311870654318000  |grad|_K:  4.551e-03  alpha:  1.000e+00
	FillingsUpdate:  mu: -0.127200000  nElectrons: 233.000000  magneticMoment: [ Abs: 0.00442  Tot: -0.00001 ]
LCAOMinimize: Iter:   1  G: -371.3421319679815156  |grad|_K:  1.483e-03  alpha:  1.120e-01  linmin: -1.392e-01  cgtest:  1.677e+00  t[s]:    286.08
LCAOMinimize: Encountered beta<0, resetting CG.
LCAOMinimize: 	Predicted alpha/alphaT>3.000000, increasing alphaT to 3.358740e-01.
LCAOMinimize: 	Predicted alpha/alphaT>3.000000, increasing alphaT to 1.007622e+00.
	FillingsUpdate:  mu: -0.127200000  nElectrons: 233.000000  magneticMoment: [ Abs: 0.00441  Tot: -0.00001 ]
LCAOMinimize: Iter:   2  G: -371.4084835340623840  |grad|_K:  1.400e-03  alpha:  3.485e-02  linmin: -1.646e-01  cgtest:  9.979e-01  t[s]:    461.16
LCAOMinimize: Encountered beta<0, resetting CG.
LCAOMinimize: 	Predicted alpha/alphaT>3.000000, increasing alphaT to 1.045550e-01.
LCAOMinimize: 	Predicted alpha/alphaT>3.000000, increasing alphaT to 3.136651e-01.
LCAOMinimize: 	Wrong curvature in test step, increasing alphaT to 9.409953e-01.
	FillingsUpdate:  mu: -0.127200000  nElectrons: 233.000000  magneticMoment: [ Abs: 0.00444  Tot: +0.00001 ]
LCAOMinimize: Iter:   3  G: -371.9899827515064317  |grad|_K:  1.183e-03  alpha: -2.363e+00  linmin: -2.291e-01  cgtest:  5.013e-01  t[s]:    630.24
	FillingsUpdate:  mu: -0.127200000  nElectrons: 233.000000  magneticMoment: [ Abs: 0.00445  Tot: +0.00001 ]
LCAOMinimize: Iter:   4  G: -372.0664291000553021  |grad|_K:  1.158e-03  alpha:  3.721e-02  linmin: -2.435e-01  cgtest:  8.856e-01  t[s]:    744.08
LCAOMinimize: 	Wrong curvature in test step, increasing alphaT to 1.116440e-01.
	FillingsUpdate:  mu: -0.127200000  nElectrons: 233.000000  magneticMoment: [ Abs: 0.00445  Tot: +0.00001 ]
LCAOMinimize: Iter:   5  G: -372.1194363608011599  |grad|_K:  1.123e-03  alpha: -6.715e-01  linmin: -2.540e-01  cgtest:  9.177e-01  t[s]:    855.29
	FillingsUpdate:  mu: -0.127200000  nElectrons: 233.000000  magneticMoment: [ Abs: 0.00446  Tot: +0.00001 ]
LCAOMinimize: Iter:   6  G: -372.1548306497418253  |grad|_K:  1.088e-03  alpha:  2.932e-02  linmin: -2.612e-01  cgtest:  9.431e-01  t[s]:    968.66
LCAOMinimize: 	Wrong curvature in test step, increasing alphaT to 8.795175e-02.
	FillingsUpdate:  mu: -0.127200000  nElectrons: 233.000000  magneticMoment: [ Abs: 0.00446  Tot: +0.00001 ]
LCAOMinimize: Iter:   7  G: -372.1866706947337207  |grad|_K:  1.045e-03  alpha: -2.418e+00  linmin: -2.680e-01  cgtest:  9.474e-01  t[s]:   1081.41
	FillingsUpdate:  mu: -0.127200000  nElectrons: 233.000000  magneticMoment: [ Abs: 0.00447  Tot: +0.00002 ]
LCAOMinimize: Iter:   8  G: -372.2159285802969748  |grad|_K:  9.940e-04  alpha:  2.979e-02  linmin: -2.746e-01  cgtest:  9.500e-01  t[s]:   1195.24
LCAOMinimize: 	Predicted alpha/alphaT>3.000000, increasing alphaT to 8.936509e-02.
LCAOMinimize: 	Predicted alpha/alphaT>3.000000, increasing alphaT to 2.680953e-01.
	FillingsUpdate:  mu: -0.127200000  nElectrons: 233.000000  magneticMoment: [ Abs: 0.00450  Tot: +0.00002 ]
LCAOMinimize: Iter:   9  G: -372.3402597891909522  |grad|_K:  4.738e-04  alpha:  1.595e-01  linmin: -3.066e-01  cgtest:  7.418e-01  t[s]:   1367.36
LCAOMinimize: Encountered beta<0, resetting CG.
	FillingsUpdate:  mu: -0.127200000  nElectrons: 233.000000  magneticMoment: [ Abs: 0.00454  Tot: +0.00004 ]
LCAOMinimize: Iter:  10  G: -372.3563843155881159  |grad|_K:  5.125e-04  alpha:  2.372e-01  linmin:  1.527e-01  cgtest: -4.186e-01  t[s]:   1480.67
LCAOMinimize: 	Bad step direction: g.d > 0.
LCAOMinimize: 	Undoing step.
LCAOMinimize: 	Step failed: resetting search direction.
	FillingsUpdate:  mu: -0.127200000  nElectrons: 233.000000  magneticMoment: [ Abs: 0.00454  Tot: +0.00004 ]
LCAOMinimize: Iter:  11  G: -372.3563843155881159  |grad|_K:  5.125e-04  alpha:  0.000e+00
	FillingsUpdate:  mu: -0.127200000  nElectrons: 233.000000  magneticMoment: [ Abs: 0.00454  Tot: +0.00004 ]
LCAOMinimize: Iter:  12  G: -372.3633276161706362  |grad|_K:  8.760e-05  alpha:  1.227e-01  linmin:  1.090e-01  cgtest: -1.175e+00  t[s]:   1680.61
LCAOMinimize: 	Wrong curvature in test step, increasing alphaT to 3.679625e-01.
	FillingsUpdate:  mu: -0.127200000  nElectrons: 233.000000  magneticMoment: [ Abs: 0.00455  Tot: +0.00005 ]
LCAOMinimize: Iter:  13  G: -372.3637793328908288  |grad|_K:  8.922e-05  alpha: -1.458e+00  linmin: -4.659e-02  cgtest:  9.597e-01  t[s]:   1792.04
	FillingsUpdate:  mu: -0.127200000  nElectrons: 233.000000  magneticMoment: [ Abs: 0.00456  Tot: +0.00005 ]
LCAOMinimize: Iter:  14  G: -372.3640063590995624  |grad|_K:  7.670e-05  alpha:  2.702e-02  linmin: -1.944e-01  cgtest:  9.864e-01  t[s]:   1905.74
LCAOMinimize: Encountered beta<0, resetting CG.
LCAOMinimize: 	Wrong curvature in test step, increasing alphaT to 8.106665e-02.
	FillingsUpdate:  mu: -0.127200000  nElectrons: 233.000000  magneticMoment: [ Abs: 0.00456  Tot: +0.00005 ]
LCAOMinimize: Iter:  15  G: -372.3641777908854920  |grad|_K:  6.649e-05  alpha: -6.265e-02  linmin: -1.943e-01  cgtest:  9.872e-01  t[s]:   2016.56
LCAOMinimize: Encountered beta<0, resetting CG.
	FillingsUpdate:  mu: -0.127200000  nElectrons: 233.000000  magneticMoment: [ Abs: 0.00456  Tot: +0.00005 ]
LCAOMinimize: Iter:  16  G: -372.3643187638875816  |grad|_K:  5.787e-05  alpha:  2.859e-02  linmin: -1.913e-01  cgtest:  9.873e-01  t[s]:   2129.97
LCAOMinimize: Encountered beta<0, resetting CG.
LCAOMinimize: 	Wrong curvature in test step, increasing alphaT to 8.577867e-02.
	FillingsUpdate:  mu: -0.127200000  nElectrons: 233.000000  magneticMoment: [ Abs: 0.00456  Tot: +0.00005 ]
LCAOMinimize: Iter:  17  G: -372.3644283209570744  |grad|_K:  5.117e-05  alpha: -4.938e-02  linmin: -1.903e-01  cgtest:  9.888e-01  t[s]:   2241.30
LCAOMinimize: Encountered beta<0, resetting CG.
	FillingsUpdate:  mu: -0.127200000  nElectrons: 233.000000  magneticMoment: [ Abs: 0.00457  Tot: +0.00005 ]
LCAOMinimize: Iter:  18  G: -372.3646259303371835  |grad|_K:  3.933e-05  alpha:  6.988e-02  linmin: -2.159e-01  cgtest:  9.489e-01  t[s]:   2354.49
LCAOMinimize: Encountered beta<0, resetting CG.
LCAOMinimize: 	Wrong curvature in test step, increasing alphaT to 2.096475e-01.
	FillingsUpdate:  mu: -0.127200000  nElectrons: 233.000000  magneticMoment: [ Abs: 0.00458  Tot: +0.00006 ]
LCAOMinimize: Iter:  19  G: -372.3647402044238106  |grad|_K:  3.377e-05  alpha: -1.822e-01  linmin: -2.379e-01  cgtest:  9.772e-01  t[s]:   2465.87
LCAOMinimize: Encountered beta<0, resetting CG.
	FillingsUpdate:  mu: -0.127200000  nElectrons: 233.000000  magneticMoment: [ Abs: 0.00461  Tot: +0.00007 ]
LCAOMinimize: Iter:  20  G: -372.3650508995586392  |grad|_K:  2.721e-05  alpha:  4.576e-01  linmin: -3.321e-02  cgtest:  3.312e-01  t[s]:   2579.60
	FillingsUpdate:  mu: -0.127200000  nElectrons: 233.000000  magneticMoment: [ Abs: 0.00462  Tot: +0.00007 ]
LCAOMinimize: Iter:  21  G: -372.3651315668668076  |grad|_K:  1.467e-05  alpha:  2.049e-01  linmin: -3.100e-03  cgtest: -3.361e-01  t[s]:   2692.74
	FillingsUpdate:  mu: -0.127200000  nElectrons: 233.000000  magneticMoment: [ Abs: 0.00464  Tot: +0.00008 ]
LCAOMinimize: Iter:  22  G: -372.3651602701294223  |grad|_K:  5.171e-06  alpha:  2.908e-01  linmin: -3.629e-02  cgtest:  8.878e-01  t[s]:   2805.98
LCAOMinimize: Encountered beta<0, resetting CG.
LCAOMinimize: 	Step increased G by 4.142591e-07, reducing alpha to 5.217692e-03.
LCAOMinimize: 	Step increased G by 6.729522e-09, reducing alpha to 5.217692e-04.
LCAOMinimize: 	Step increased G by 3.674927e-10, reducing alpha to 5.217692e-05.
LCAOMinimize: 	Step failed to reduce G after 3 attempts. Quitting step.
LCAOMinimize: 	Undoing step.
LCAOMinimize: 	Step failed along negative gradient direction.
LCAOMinimize: Probably at roundoff error limit. (Stopping)
----- createFluidSolver() ----- (Fluid-side solver setup)
   Initializing fluid molecule 'H2O'
     Initializing site 'O'
       Electron density: proportional to exp(-r/0.36935)*erfc((r-0.51523)/0.36823) with norm 6.826
       Charge density: gaussian nuclear width 0.478731 with net site charge 0.826
       Polarizability: cuspless exponential with width 0.32 and norm 3.73
       Hard sphere radius: 2.57003 bohrs
       Positions in reference frame:
         [ +0.000000 +0.000000 +0.000000 ]
     Initializing site 'H'
       Electron density: proportional to exp(-r/0.34641)*erfc((r-0)/0.390882) with norm 0.587
       Charge density: gaussian nuclear width 0.377945 with net site charge -0.413
       Polarizability: cuspless exponential with width 0.39 and norm 3.3
       Positions in reference frame:
         [ +0.000000 -1.441945 +1.122523 ]
         [ +0.000000 +1.441945 +1.122523 ]
     Net charge: 0   dipole magnitude: 0.927204
     Initializing spherical shell mfKernel with radius 2.61727 Bohr
     deltaS corrections:
       site 'O': -7.54299
       site 'H': -6.83917
   Initializing fluid molecule 'Na+'
     Initializing site 'Na'
       Electron density: proportional to exp(-r/0.19682)*erfc((r-0.71491)/0.41314) with norm 8.1383
       Charge density: gaussian nuclear width 0.365347 with net site charge -1
       Hard sphere radius: 1.86327 bohrs
       Positions in reference frame:
         [ +0.000000 +0.000000 +0.000000 ]
     Net charge: -1   dipole magnitude: 0
     Initializing gaussian mfKernel with width: 1.55004 Bohr
     deltaS corrections:
       site 'Na': -22.3555
   Initializing fluid molecule 'F-'
     Initializing site 'F'
       Electron density: proportional to exp(-r/0.38886)*erfc((r-0)/0.438782) with norm 8
       Charge density: gaussian nuclear width 0.374796 with net site charge 1
       Hard sphere radius: 2.39995 bohrs
       Positions in reference frame:
         [ +0.000000 +0.000000 +0.000000 ]
     Net charge: 1   dipole magnitude: 0
     Initializing gaussian mfKernel with width: 1.59012 Bohr
     deltaS corrections:
       site 'F': -9.04335

Correction to mu due to finite nuclear width = -0.0114303
   Cavity determined by nc: 0.00142 and sigma: 0.707107
   Nonlocal vdW cavity from gaussian model electron density with norm = 8 and sigma = 0.993594 bohr
   Charge asymmetry in cavity with sensitivity pCavity = 36.5 e-bohr/Eh
   Electrostatic cavity expanded by eta = 1.46 bohrs
   Weighted density cavitation model constrained by Nbulk: 0.0049383 bohr^-3, Pvap: 3.14029 kPa, Rvdw: 2.61727 bohr and sigmaBulk: 4.62e-05 Eh/bohr^2 at T: 298 K.
   Weighted density dispersion model using vdW pair potentials with single solvent site with sqrtC6eff: 0.77 SI.
WARNING: Vibrations: switching off translationSym and rotationSym since useConstraints is on.

---- Citations for features of the code used in this run ----

   Software package:
      R. Sundararaman, K. Letchworth-Weaver, K.A. Schwarz, D. Gunceler, Y. Ozhabes and T.A. Arias, 'JDFTx: software for joint density-functional theory', SoftwareX 6, 278 (2017)

   gga-PBE exchange-correlation functional:
      J.P. Perdew, K. Burke and M. Ernzerhof, Phys. Rev. Lett. 77, 3865 (1996)

   Pseudopotentials:
      KF Garrity, JW Bennett, KM Rabe and D Vanderbilt, Comput. Mater. Sci. 81, 446 (2014)

   DFT-D3 dispersion correction:
      S. Grimme, J. Antony, S. Ehrlich and H. Krieg, J. Chem. Phys. 132, 154104 (2010)

   DFT-D2 dispersion correction:
      S. Grimme, J. Comput. Chem. 27, 1787 (2006)

   Charge-asymmetric nonlocally-determined local-electric (CANDLE) solvation model:
      R. Sundararaman and W.A. Goddard III, J. Chem. Phys. 142, 064107 (2015)

   Total energy minimization with Auxiliary Hamiltonian:
      C. Freysoldt, S. Boeck, and J. Neugebauer, Phys. Rev. B 79, 241103(R) (2009)

   Grand-canonical (fixed-potential) DFT:
      R. Sundararaman, W. A. Goddard III and T. A. Arias, J. Chem. Phys. 146, 114104 (2017)

   Linear-tetrahedron sampling for density of states:
      G. Lehmann and M. Taut, Phys. status solidi (b) 54, 469 (1972)

This list may not be complete. Please suggest additional citations or
report any other bugs at https://github.com/shankar1729/jdftx/issues

Initialization completed successfully at t[s]:   3189.63

------ Vibrations::calculate() -------
WARNING: Vibrations module is experimental. Please report bugs!
Compare results with and without symmetries and report discrepancies.
Degrees of freedom: 21 total, 21 symmetry-independent.

Computing DFT-D3 correction:
# coordination-number C 3.299 3.322 3.336 3.332 3.312 3.288 3.321 3.547 3.330 3.313 3.302 3.331 3.304 3.300 3.324 3.634 3.267 3.301 3.320 3.334 3.326 3.302 3.300 3.328 3.335 3.320 3.300 3.267 3.544 3.325 3.301 3.305 3.320 3.301 3.313 3.329 3.641 3.326 3.289 3.312 3.332 3.334 3.321 3.300 3.016
# coordination-number N 3.173 3.178 3.173 3.182
# coordination-number Ti 7.429
# coordination-number O 2.002 1.984 2.074
# coordination-number H 1.068 0.992 0.992
# diagonal-C6 C 24.29 24.06 23.91 23.95 24.17 24.39 24.08 20.96 23.97 24.15 24.26 23.96 24.25 24.28 24.04 19.90 24.58 24.27 24.08 23.93 24.02 24.26 24.28 24.00 23.92 24.08 24.29 24.58 21.01 24.03 24.27 24.23 24.08 24.27 24.16 23.99 19.82 24.02 24.39 24.16 23.95 23.93 24.07 24.28 25.64
# diagonal-C6 N 15.60 15.60 15.60 15.60
# diagonal-C6 Ti 321.59
# diagonal-C6 O 10.41 10.41 10.39
# diagonal-C6 H 3.07 3.09 3.09
EvdW_6 =   -0.043592
EvdW_8 =   -0.033237
Fluid solver invoked on fresh (random / LCAO) wavefunctions
Running a vacuum solve first:

-------- Initial electronic minimization -----------
	FillingsUpdate:  mu: -0.174720673  nElectrons: 233.000000  magneticMoment: [ Abs: 0.00464  Tot: +0.00008 ]
ElecMinimize: Iter:   0  G: -372.363890407446149  |grad|_K:  1.439e-04  alpha:  1.000e+00
	FillingsUpdate:  mu: -0.108677784  nElectrons: 233.000000  magneticMoment: [ Abs: 0.00256  Tot: +0.00009 ]
	SubspaceRotationAdjust: set factor to 1
ElecMinimize: Iter:   1  G: -375.398174736222131  |grad|_K:  4.696e-05  alpha:  6.810e-01  linmin:  4.267e-04  t[s]:   3373.53
	FillingsUpdate:  mu: -0.050495138  nElectrons: 233.000000  magneticMoment: [ Abs: 0.00255  Tot: +0.00028 ]
	SubspaceRotationAdjust: set factor to 0.696
ElecMinimize: Iter:   2  G: -375.466051919434733  |grad|_K:  5.701e-05  alpha:  1.161e-01  linmin:  7.269e-05  t[s]:   3485.15
	FillingsUpdate:  mu: -0.054934786  nElectrons: 233.000000  magneticMoment: [ Abs: 0.00218  Tot: +0.00086 ]
	SubspaceRotationAdjust: set factor to 0.496
ElecMinimize: Iter:   3  G: -375.632894969339304  |grad|_K:  4.305e-05  alpha:  2.422e-01  linmin: -1.413e-06  t[s]:   3596.44
	FillingsUpdate:  mu: -0.104314093  nElectrons: 233.000000  magneticMoment: [ Abs: 0.00146  Tot: +0.00048 ]
	SubspaceRotationAdjust: set factor to 0.236
ElecMinimize: Iter:   4  G: -375.672136319992887  |grad|_K:  2.524e-05  alpha:  1.132e-01  linmin:  7.684e-04  t[s]:   3708.06
ElecMinimize: 	Predicted alpha/alphaT>3.000000, increasing alphaT to 3.395935e-01.
	FillingsUpdate:  mu: -0.104056458  nElectrons: 233.000000  magneticMoment: [ Abs: 0.00138  Tot: +0.00096 ]
	SubspaceRotationAdjust: set factor to 0.288
ElecMinimize: Iter:   5  G: -375.712159948746148  |grad|_K:  1.658e-05  alpha:  4.605e-01  linmin:  9.414e-06  t[s]:   3847.72
	FillingsUpdate:  mu: -0.054327238  nElectrons: 233.000000  magneticMoment: [ Abs: 0.00242  Tot: +0.00214 ]
	SubspaceRotationAdjust: set factor to 0.197
ElecMinimize: Iter:   6  G: -375.728793099225811  |grad|_K:  1.036e-05  alpha:  2.847e-01  linmin:  2.863e-04  t[s]:   3959.45
	FillingsUpdate:  mu: -0.055245090  nElectrons: 233.000000  magneticMoment: [ Abs: 0.00335  Tot: +0.00318 ]
	SubspaceRotationAdjust: set factor to 0.232
ElecMinimize: Iter:   7  G: -375.740231640042623  |grad|_K:  5.837e-06  alpha:  5.138e-01  linmin:  5.240e-06  t[s]:   4071.05
	FillingsUpdate:  mu: -0.068913648  nElectrons: 233.000000  magneticMoment: [ Abs: 0.00436  Tot: +0.00419 ]
	SubspaceRotationAdjust: set factor to 0.222
ElecMinimize: Iter:   8  G: -375.744340273194894  |grad|_K:  4.133e-06  alpha:  5.537e-01  linmin:  2.051e-05  t[s]:   4182.82
	FillingsUpdate:  mu: -0.056505550  nElectrons: 233.000000  magneticMoment: [ Abs: 0.00626  Tot: +0.00608 ]
	SubspaceRotationAdjust: set factor to 0.194
ElecMinimize: Iter:   9  G: -375.745634558579582  |grad|_K:  2.494e-06  alpha:  3.502e-01  linmin:  8.158e-06  t[s]:   4294.29
	FillingsUpdate:  mu: -0.057465948  nElectrons: 233.000000  magneticMoment: [ Abs: 0.00990  Tot: +0.00965 ]
	SubspaceRotationAdjust: set factor to 0.223
ElecMinimize: Iter:  10  G: -375.746500116450648  |grad|_K:  1.871e-06  alpha:  6.400e-01  linmin:  2.157e-06  t[s]:   4406.00
	FillingsUpdate:  mu: -0.059168515  nElectrons: 233.000000  magneticMoment: [ Abs: 0.01427  Tot: +0.01390 ]
	SubspaceRotationAdjust: set factor to 0.229
ElecMinimize: Iter:  11  G: -375.746890187041458  |grad|_K:  1.285e-06  alpha:  5.118e-01  linmin:  5.685e-07  t[s]:   4517.41
	FillingsUpdate:  mu: -0.057044421  nElectrons: 233.000000  magneticMoment: [ Abs: 0.02175  Tot: +0.02121 ]
	SubspaceRotationAdjust: set factor to 0.223
ElecMinimize: Iter:  12  G: -375.747081720402434  |grad|_K:  1.010e-06  alpha:  5.320e-01  linmin:  1.152e-06  t[s]:   4629.24
	FillingsUpdate:  mu: -0.058729221  nElectrons: 233.000000  magneticMoment: [ Abs: 0.03303  Tot: +0.03222 ]
	SubspaceRotationAdjust: set factor to 0.214
ElecMinimize: Iter:  13  G: -375.747193750187876  |grad|_K:  7.125e-07  alpha:  5.039e-01  linmin:  7.621e-07  t[s]:   4740.83
	FillingsUpdate:  mu: -0.058006594  nElectrons: 233.000000  magneticMoment: [ Abs: 0.05074  Tot: +0.04952 ]
	SubspaceRotationAdjust: set factor to 0.241
ElecMinimize: Iter:  14  G: -375.747251757241372  |grad|_K:  5.259e-07  alpha:  5.247e-01  linmin:  1.288e-06  t[s]:   4852.31
	FillingsUpdate:  mu: -0.057645801  nElectrons: 233.000000  magneticMoment: [ Abs: 0.09491  Tot: +0.09258 ]
	SubspaceRotationAdjust: set factor to 0.225
ElecMinimize: Iter:  15  G: -375.747304369502558  |grad|_K:  6.580e-07  alpha:  8.800e-01  linmin:  1.299e-05  t[s]:   4964.05
	FillingsUpdate:  mu: -0.062595727  nElectrons: 233.000000  magneticMoment: [ Abs: 0.29991  Tot: +0.29173 ]
	SubspaceRotationAdjust: set factor to 0.24
ElecMinimize: Iter:  16  G: -375.747439865629246  |grad|_K:  1.891e-06  alpha:  1.664e+00  linmin:  6.613e-05  t[s]:   5075.88
	FillingsUpdate:  mu: -0.060418716  nElectrons: 233.000000  magneticMoment: [ Abs: 0.36727  Tot: +0.35706 ]
	SubspaceRotationAdjust: set factor to 0.309
ElecMinimize: Iter:  17  G: -375.747495200892786  |grad|_K:  2.041e-06  alpha:  7.356e-02  linmin: -6.258e-05  t[s]:   5187.76
	FillingsUpdate:  mu: -0.058625555  nElectrons: 233.000000  magneticMoment: [ Abs: 0.45146  Tot: +0.43678 ]
	SubspaceRotationAdjust: set factor to 0.365
ElecMinimize: Iter:  18  G: -375.747599444308037  |grad|_K:  2.179e-06  alpha:  8.949e-02  linmin:  1.358e-05  t[s]:   5299.72
	FillingsUpdate:  mu: -0.057829376  nElectrons: 233.000000  magneticMoment: [ Abs: 0.49369  Tot: +0.47532 ]
	SubspaceRotationAdjust: set factor to 0.455
ElecMinimize: Iter:  19  G: -375.747645896544839  |grad|_K:  2.229e-06  alpha:  5.000e-02  linmin:  4.716e-06  t[s]:   5411.60
	FillingsUpdate:  mu: -0.057672549  nElectrons: 233.000000  magneticMoment: [ Abs: 0.52822  Tot: +0.50477 ]
	SubspaceRotationAdjust: set factor to 0.583
ElecMinimize: Iter:  20  G: -375.747701133192493  |grad|_K:  2.212e-06  alpha:  5.179e-02  linmin: -1.727e-05  t[s]:   5524.12
	FillingsUpdate:  mu: -0.058501472  nElectrons: 233.000000  magneticMoment: [ Abs: 0.55515  Tot: +0.52445 ]
	SubspaceRotationAdjust: set factor to 0.771
ElecMinimize: Iter:  21  G: -375.747768624638979  |grad|_K:  2.012e-06  alpha:  5.946e-02  linmin: -2.665e-05  t[s]:   5635.56
	FillingsUpdate:  mu: -0.060530153  nElectrons: 233.000000  magneticMoment: [ Abs: 0.57211  Tot: +0.53388 ]
	SubspaceRotationAdjust: set factor to 0.985
ElecMinimize: Iter:  22  G: -375.747825456531871  |grad|_K:  1.865e-06  alpha:  6.097e-02  linmin: -1.565e-05  t[s]:   5747.17
	FillingsUpdate:  mu: -0.062905847  nElectrons: 233.000000  magneticMoment: [ Abs: 0.58715  Tot: +0.54023 ]
	SubspaceRotationAdjust: set factor to 1.06
ElecMinimize: Iter:  23  G: -375.747877317402583  |grad|_K:  2.085e-06  alpha:  6.710e-02  linmin: -2.530e-05  t[s]:   5859.20
	FillingsUpdate:  mu: -0.064156684  nElectrons: 233.000000  magneticMoment: [ Abs: 0.60735  Tot: +0.54678 ]
	SubspaceRotationAdjust: set factor to 0.991
ElecMinimize: Iter:  24  G: -375.747941673562423  |grad|_K:  2.244e-06  alpha:  6.702e-02  linmin: -6.192e-06  t[s]:   5971.14
	FillingsUpdate:  mu: -0.063253833  nElectrons: 233.000000  magneticMoment: [ Abs: 0.62831  Tot: +0.55126 ]
	SubspaceRotationAdjust: set factor to 1.29
ElecMinimize: Iter:  25  G: -375.748002605046793  |grad|_K:  1.933e-06  alpha:  5.532e-02  linmin: -4.787e-06  t[s]:   6082.63
	FillingsUpdate:  mu: -0.061317035  nElectrons: 233.000000  magneticMoment: [ Abs: 0.64647  Tot: +0.55348 ]
	SubspaceRotationAdjust: set factor to 1.62
ElecMinimize: Iter:  26  G: -375.748052918394592  |grad|_K:  1.745e-06  alpha:  6.054e-02  linmin: -6.024e-06  t[s]:   6194.04
	FillingsUpdate:  mu: -0.059510852  nElectrons: 233.000000  magneticMoment: [ Abs: 0.66452  Tot: +0.55460 ]
	SubspaceRotationAdjust: set factor to 1.87
ElecMinimize: Iter:  27  G: -375.748103627402998  |grad|_K:  1.869e-06  alpha:  7.376e-02  linmin: -2.595e-06  t[s]:   6305.61
	FillingsUpdate:  mu: -0.059339132  nElectrons: 233.000000  magneticMoment: [ Abs: 0.68235  Tot: +0.55509 ]
	SubspaceRotationAdjust: set factor to 2.47
ElecMinimize: Iter:  28  G: -375.748162027624858  |grad|_K:  1.884e-06  alpha:  7.526e-02  linmin: -6.092e-07  t[s]:   6417.61
	FillingsUpdate:  mu: -0.060934161  nElectrons: 233.000000  magneticMoment: [ Abs: 0.69185  Tot: +0.55509 ]
	SubspaceRotationAdjust: set factor to 3.02
ElecMinimize: Iter:  29  G: -375.748207350047039  |grad|_K:  1.703e-06  alpha:  5.850e-02  linmin: -2.835e-07  t[s]:   6529.33
	FillingsUpdate:  mu: -0.062668163  nElectrons: 233.000000  magneticMoment: [ Abs: 0.69590  Tot: +0.55484 ]
	SubspaceRotationAdjust: set factor to 2.6
ElecMinimize: Iter:  30  G: -375.748250015303199  |grad|_K:  1.989e-06  alpha:  6.732e-02  linmin: -5.355e-08  t[s]:   6640.58
	FillingsUpdate:  mu: -0.061951369  nElectrons: 233.000000  magneticMoment: [ Abs: 0.69905  Tot: +0.55460 ]
	SubspaceRotationAdjust: set factor to 2.72
ElecMinimize: Iter:  31  G: -375.748299489428859  |grad|_K:  1.716e-06  alpha:  5.737e-02  linmin: -1.500e-07  t[s]:   6752.05
	FillingsUpdate:  mu: -0.060038923  nElectrons: 233.000000  magneticMoment: [ Abs: 0.69893  Tot: +0.55442 ]
	SubspaceRotationAdjust: set factor to 3.23
ElecMinimize: Iter:  32  G: -375.748334834897264  |grad|_K:  1.649e-06  alpha:  5.507e-02  linmin: -6.853e-07  t[s]:   6863.73
	FillingsUpdate:  mu: -0.059145052  nElectrons: 233.000000  magneticMoment: [ Abs: 0.69111  Tot: +0.55355 ]
	SubspaceRotationAdjust: set factor to 2.92
ElecMinimize: Iter:  33  G: -375.748379447797902  |grad|_K:  1.937e-06  alpha:  7.522e-02  linmin: -2.047e-06  t[s]:   6975.38
	FillingsUpdate:  mu: -0.060672951  nElectrons: 233.000000  magneticMoment: [ Abs: 0.67820  Tot: +0.55129 ]
	SubspaceRotationAdjust: set factor to 3.97
ElecMinimize: Iter:  34  G: -375.748417910640114  |grad|_K:  1.642e-06  alpha:  4.521e-02  linmin: -3.658e-06  t[s]:   7087.01
	FillingsUpdate:  mu: -0.062493562  nElectrons: 233.000000  magneticMoment: [ Abs: 0.66297  Tot: +0.54747 ]
	SubspaceRotationAdjust: set factor to 3.4
ElecMinimize: Iter:  35  G: -375.748451949557818  |grad|_K:  2.201e-06  alpha:  5.803e-02  linmin:  7.616e-06  t[s]:   7198.63
	FillingsUpdate:  mu: -0.061865832  nElectrons: 233.000000  magneticMoment: [ Abs: 0.64895  Tot: +0.54405 ]
	SubspaceRotationAdjust: set factor to 3.75
ElecMinimize: Iter:  36  G: -375.748487313408930  |grad|_K:  1.881e-06  alpha:  3.528e-02  linmin: -4.715e-07  t[s]:   7311.06
	FillingsUpdate:  mu: -0.059999924  nElectrons: 233.000000  magneticMoment: [ Abs: 0.64365  Tot: +0.54399 ]
	SubspaceRotationAdjust: set factor to 4.24
ElecMinimize: Iter:  37  G: -375.748509788997239  |grad|_K:  1.654e-06  alpha:  2.893e-02  linmin:  3.009e-07  t[s]:   7422.50
	FillingsUpdate:  mu: -0.058771545  nElectrons: 233.000000  magneticMoment: [ Abs: 0.63784  Tot: +0.54493 ]
	SubspaceRotationAdjust: set factor to 2.96
ElecMinimize: Iter:  38  G: -375.748538808094906  |grad|_K:  2.231e-06  alpha:  4.901e-02  linmin:  1.006e-06  t[s]:   7534.16
	FillingsUpdate:  mu: -0.059874858  nElectrons: 233.000000  magneticMoment: [ Abs: 0.63015  Tot: +0.54483 ]
	SubspaceRotationAdjust: set factor to 2.94
ElecMinimize: Iter:  39  G: -375.748569918512487  |grad|_K:  1.590e-06  alpha:  2.882e-02  linmin: -2.500e-07  t[s]:   7645.97
	FillingsUpdate:  mu: -0.061685455  nElectrons: 233.000000  magneticMoment: [ Abs: 0.62632  Tot: +0.54503 ]
	SubspaceRotationAdjust: set factor to 2.68
ElecMinimize: Iter:  40  G: -375.748590806459390  |grad|_K:  1.649e-06  alpha:  3.788e-02  linmin:  5.765e-07  t[s]:   7757.84
	FillingsUpdate:  mu: -0.062655761  nElectrons: 233.000000  magneticMoment: [ Abs: 0.62670  Tot: +0.54777 ]
	SubspaceRotationAdjust: set factor to 2.06
ElecMinimize: Iter:  41  G: -375.748622802334296  |grad|_K:  1.828e-06  alpha:  5.406e-02  linmin: -2.084e-08  t[s]:   7870.32
	FillingsUpdate:  mu: -0.061458084  nElectrons: 233.000000  magneticMoment: [ Abs: 0.63088  Tot: +0.55068 ]
	SubspaceRotationAdjust: set factor to 2.77
ElecMinimize: Iter:  42  G: -375.748649212878888  |grad|_K:  1.354e-06  alpha:  3.690e-02  linmin: -4.318e-07  t[s]:   7981.74
	FillingsUpdate:  mu: -0.060056005  nElectrons: 233.000000  magneticMoment: [ Abs: 0.63604  Tot: +0.55244 ]
	SubspaceRotationAdjust: set factor to 3
ElecMinimize: Iter:  43  G: -375.748671335114238  |grad|_K:  1.471e-06  alpha:  5.461e-02  linmin: -7.107e-06  t[s]:   8092.98
	FillingsUpdate:  mu: -0.059964639  nElectrons: 233.000000  magneticMoment: [ Abs: 0.64275  Tot: +0.55343 ]
	SubspaceRotationAdjust: set factor to 3.3
ElecMinimize: Iter:  44  G: -375.748702135466999  |grad|_K:  1.435e-06  alpha:  6.320e-02  linmin: -5.523e-07  t[s]:   8204.69
	FillingsUpdate:  mu: -0.061240247  nElectrons: 233.000000  magneticMoment: [ Abs: 0.64619  Tot: +0.55342 ]
	SubspaceRotationAdjust: set factor to 3.98
ElecMinimize: Iter:  45  G: -375.748721457380043  |grad|_K:  1.218e-06  alpha:  4.308e-02  linmin:  2.135e-08  t[s]:   8317.26
	FillingsUpdate:  mu: -0.062104957  nElectrons: 233.000000  magneticMoment: [ Abs: 0.65047  Tot: +0.55314 ]
	SubspaceRotationAdjust: set factor to 3.58
ElecMinimize: Iter:  46  G: -375.748741396787580  |grad|_K:  1.406e-06  alpha:  6.156e-02  linmin: -6.773e-07  t[s]:   8429.90
	FillingsUpdate:  mu: -0.061055149  nElectrons: 233.000000  magneticMoment: [ Abs: 0.65579  Tot: +0.55309 ]
	SubspaceRotationAdjust: set factor to 5.08
ElecMinimize: Iter:  47  G: -375.748758721169338  |grad|_K:  1.078e-06  alpha:  4.012e-02  linmin:  2.017e-08  t[s]:   8542.95
	FillingsUpdate:  mu: -0.060019002  nElectrons: 233.000000  magneticMoment: [ Abs: 0.65911  Tot: +0.55281 ]
	SubspaceRotationAdjust: set factor to 4.25
ElecMinimize: Iter:  48  G: -375.748772925641390  |grad|_K:  1.322e-06  alpha:  5.604e-02  linmin: -3.617e-07  t[s]:   8655.46
	FillingsUpdate:  mu: -0.060720586  nElectrons: 233.000000  magneticMoment: [ Abs: 0.65840  Tot: +0.55149 ]
	SubspaceRotationAdjust: set factor to 5.32
ElecMinimize: Iter:  49  G: -375.748788295848613  |grad|_K:  1.021e-06  alpha:  4.009e-02  linmin:  9.046e-07  t[s]:   8766.01
	FillingsUpdate:  mu: -0.061746564  nElectrons: 233.000000  magneticMoment: [ Abs: 0.65494  Tot: +0.54987 ]
	SubspaceRotationAdjust: set factor to 4.28
ElecMinimize: Iter:  50  G: -375.748799823056288  |grad|_K:  1.259e-06  alpha:  5.111e-02  linmin:  4.716e-06  t[s]:   8877.24
	FillingsUpdate:  mu: -0.061135659  nElectrons: 233.000000  magneticMoment: [ Abs: 0.65159  Tot: +0.54894 ]
	SubspaceRotationAdjust: set factor to 5.37
ElecMinimize: Iter:  51  G: -375.748812746166323  |grad|_K:  9.658e-07  alpha:  3.807e-02  linmin:  7.975e-08  t[s]:   8988.88
	FillingsUpdate:  mu: -0.060159930  nElectrons: 233.000000  magneticMoment: [ Abs: 0.64891  Tot: +0.54905 ]
	SubspaceRotationAdjust: set factor to 4.56
ElecMinimize: Iter:  52  G: -375.748821793322577  |grad|_K:  1.113e-06  alpha:  4.458e-02  linmin:  5.260e-07  t[s]:   9100.20
	FillingsUpdate:  mu: -0.060528677  nElectrons: 233.000000  magneticMoment: [ Abs: 0.64264  Tot: +0.54871 ]
	SubspaceRotationAdjust: set factor to 6.08
ElecMinimize: Iter:  53  G: -375.748832560000039  |grad|_K:  8.777e-07  alpha:  4.005e-02  linmin:  2.305e-07  t[s]:   9212.42
	FillingsUpdate:  mu: -0.061354816  nElectrons: 233.000000  magneticMoment: [ Abs: 0.63773  Tot: +0.54859 ]
	SubspaceRotationAdjust: set factor to 5.46
ElecMinimize: Iter:  54  G: -375.748839731393218  |grad|_K:  1.026e-06  alpha:  4.282e-02  linmin:  5.369e-07  t[s]:   9324.20
	FillingsUpdate:  mu: -0.060888077  nElectrons: 233.000000  magneticMoment: [ Abs: 0.63440  Tot: +0.54982 ]
	SubspaceRotationAdjust: set factor to 6.35
ElecMinimize: Iter:  55  G: -375.748848727452355  |grad|_K:  8.498e-07  alpha:  3.937e-02  linmin: -1.400e-07  t[s]:   9435.69
	FillingsUpdate:  mu: -0.060135695  nElectrons: 233.000000  magneticMoment: [ Abs: 0.63351  Tot: +0.55105 ]
	SubspaceRotationAdjust: set factor to 4.96
ElecMinimize: Iter:  56  G: -375.748856103488549  |grad|_K:  1.025e-06  alpha:  4.677e-02  linmin: -3.281e-06  t[s]:   9547.80
	FillingsUpdate:  mu: -0.060713910  nElectrons: 233.000000  magneticMoment: [ Abs: 0.63222  Tot: +0.55157 ]
	SubspaceRotationAdjust: set factor to 5.98
ElecMinimize: Iter:  57  G: -375.748864284261913  |grad|_K:  7.912e-07  alpha:  3.548e-02  linmin: -1.693e-07  t[s]:   9659.63
	FillingsUpdate:  mu: -0.061274449  nElectrons: 233.000000  magneticMoment: [ Abs: 0.63297  Tot: +0.55186 ]
	SubspaceRotationAdjust: set factor to 4.97
ElecMinimize: Iter:  58  G: -375.748871983085110  |grad|_K:  9.403e-07  alpha:  5.629e-02  linmin: -6.028e-07  t[s]:   9771.53
	FillingsUpdate:  mu: -0.060587734  nElectrons: 233.000000  magneticMoment: [ Abs: 0.63617  Tot: +0.55234 ]
	SubspaceRotationAdjust: set factor to 6.49
ElecMinimize: Iter:  59  G: -375.748878555022657  |grad|_K:  7.600e-07  alpha:  3.417e-02  linmin:  1.118e-07  t[s]:   9884.03
	FillingsUpdate:  mu: -0.060262873  nElectrons: 233.000000  magneticMoment: [ Abs: 0.64053  Tot: +0.55240 ]
	SubspaceRotationAdjust: set factor to 5.78
ElecMinimize: Iter:  60  G: -375.748886210145088  |grad|_K:  9.028e-07  alpha:  6.077e-02  linmin: -5.996e-07  t[s]:   9996.05
	FillingsUpdate:  mu: -0.061012010  nElectrons: 233.000000  magneticMoment: [ Abs: 0.64263  Tot: +0.55183 ]
	SubspaceRotationAdjust: set factor to 6.17
ElecMinimize: Iter:  61  G: -375.748891883035469  |grad|_K:  7.902e-07  alpha:  3.177e-02  linmin: -2.539e-07  t[s]:  10108.61
	FillingsUpdate:  mu: -0.061148124  nElectrons: 233.000000  magneticMoment: [ Abs: 0.64597  Tot: +0.55092 ]
	SubspaceRotationAdjust: set factor to 5.47
ElecMinimize: Iter:  62  G: -375.748899488217887  |grad|_K:  8.530e-07  alpha:  5.590e-02  linmin:  1.437e-06  t[s]:  10220.67
	FillingsUpdate:  mu: -0.060362387  nElectrons: 233.000000  magneticMoment: [ Abs: 0.64850  Tot: +0.55055 ]
	SubspaceRotationAdjust: set factor to 5.51
ElecMinimize: Iter:  63  G: -375.748904641678280  |grad|_K:  7.936e-07  alpha:  3.252e-02  linmin: -1.634e-07  t[s]:  10332.84
	FillingsUpdate:  mu: -0.060255746  nElectrons: 233.000000  magneticMoment: [ Abs: 0.64897  Tot: +0.54936 ]
	SubspaceRotationAdjust: set factor to 5.18
ElecMinimize: Iter:  64  G: -375.748911961990814  |grad|_K:  7.886e-07  alpha:  5.339e-02  linmin:  4.808e-07  t[s]:  10444.56
	FillingsUpdate:  mu: -0.060931423  nElectrons: 233.000000  magneticMoment: [ Abs: 0.64712  Tot: +0.54832 ]
	SubspaceRotationAdjust: set factor to 5.13
ElecMinimize: Iter:  65  G: -375.748916374571309  |grad|_K:  7.410e-07  alpha:  3.224e-02  linmin: -4.617e-07  t[s]:  10556.60
	FillingsUpdate:  mu: -0.060952546  nElectrons: 233.000000  magneticMoment: [ Abs: 0.64475  Tot: +0.54810 ]
	SubspaceRotationAdjust: set factor to 4.73
ElecMinimize: Iter:  66  G: -375.748922439548153  |grad|_K:  7.264e-07  alpha:  5.057e-02  linmin:  4.647e-07  t[s]:  10668.43
	FillingsUpdate:  mu: -0.060294625  nElectrons: 233.000000  magneticMoment: [ Abs: 0.64400  Tot: +0.54887 ]
	SubspaceRotationAdjust: set factor to 5.02
ElecMinimize: Iter:  67  G: -375.748925956681092  |grad|_K:  6.392e-07  alpha:  3.072e-02  linmin: -9.297e-08  t[s]:  10780.70
	FillingsUpdate:  mu: -0.060155233  nElectrons: 233.000000  magneticMoment: [ Abs: 0.64161  Tot: +0.54991 ]
	SubspaceRotationAdjust: set factor to 4.27
ElecMinimize: Iter:  68  G: -375.748930762791758  |grad|_K:  6.822e-07  alpha:  5.391e-02  linmin: -2.043e-06  t[s]:  10892.59
	FillingsUpdate:  mu: -0.060767823  nElectrons: 233.000000  magneticMoment: [ Abs: 0.63919  Tot: +0.55030 ]
	SubspaceRotationAdjust: set factor to 5.15
ElecMinimize: Iter:  69  G: -375.748933904962882  |grad|_K:  5.748e-07  alpha:  3.092e-02  linmin:  8.562e-08  t[s]:  11004.43
	FillingsUpdate:  mu: -0.061110959  nElectrons: 233.000000  magneticMoment: [ Abs: 0.63706  Tot: +0.55106 ]
	SubspaceRotationAdjust: set factor to 4.17
ElecMinimize: Iter:  70  G: -375.748938117570162  |grad|_K:  7.027e-07  alpha:  5.847e-02  linmin: -1.991e-07  t[s]:  11116.28
	FillingsUpdate:  mu: -0.060581733  nElectrons: 233.000000  magneticMoment: [ Abs: 0.63689  Tot: +0.55178 ]
	SubspaceRotationAdjust: set factor to 5.7
ElecMinimize: Iter:  71  G: -375.748941221838436  |grad|_K:  5.178e-07  alpha:  2.921e-02  linmin:  1.010e-06  t[s]:  11228.07
	FillingsUpdate:  mu: -0.060192663  nElectrons: 233.000000  magneticMoment: [ Abs: 0.63731  Tot: +0.55216 ]
	SubspaceRotationAdjust: set factor to 4.54
ElecMinimize: Iter:  72  G: -375.748944347506779  |grad|_K:  6.597e-07  alpha:  5.373e-02  linmin: -7.388e-07  t[s]:  11340.31
	FillingsUpdate:  mu: -0.060647416  nElectrons: 233.000000  magneticMoment: [ Abs: 0.63734  Tot: +0.55201 ]
	SubspaceRotationAdjust: set factor to 6.48
ElecMinimize: Iter:  73  G: -375.748947200983935  |grad|_K:  4.842e-07  alpha:  3.000e-02  linmin:  9.145e-08  t[s]:  11452.21
	FillingsUpdate:  mu: -0.061146278  nElectrons: 233.000000  magneticMoment: [ Abs: 0.63809  Tot: +0.55160 ]
	SubspaceRotationAdjust: set factor to 4.7
ElecMinimize: Iter:  74  G: -375.748949873768197  |grad|_K:  6.761e-07  alpha:  5.235e-02  linmin:  5.135e-07  t[s]:  11563.42
	FillingsUpdate:  mu: -0.060789086  nElectrons: 233.000000  magneticMoment: [ Abs: 0.64066  Tot: +0.55134 ]
	SubspaceRotationAdjust: set factor to 5.36
ElecMinimize: Iter:  75  G: -375.748952962063242  |grad|_K:  4.931e-07  alpha:  3.104e-02  linmin: -2.347e-07  t[s]:  11675.73
	FillingsUpdate:  mu: -0.060356508  nElectrons: 233.000000  magneticMoment: [ Abs: 0.64337  Tot: +0.55113 ]
	SubspaceRotationAdjust: set factor to 4.38
ElecMinimize: Iter:  76  G: -375.748955561334071  |grad|_K:  5.965e-07  alpha:  4.902e-02  linmin: -8.803e-08  t[s]:  11787.94
	FillingsUpdate:  mu: -0.060691108  nElectrons: 233.000000  magneticMoment: [ Abs: 0.64527  Tot: +0.55050 ]
	SubspaceRotationAdjust: set factor to 6.35
ElecMinimize: Iter:  77  G: -375.748958372109769  |grad|_K:  4.426e-07  alpha:  3.618e-02  linmin:  6.965e-08  t[s]:  11901.35
	FillingsUpdate:  mu: -0.061135111  nElectrons: 233.000000  magneticMoment: [ Abs: 0.64597  Tot: +0.55002 ]
	SubspaceRotationAdjust: set factor to 5.05
ElecMinimize: Iter:  78  G: -375.748960371748012  |grad|_K:  5.527e-07  alpha:  4.693e-02  linmin:  6.412e-07  t[s]:  12017.05
	FillingsUpdate:  mu: -0.060850358  nElectrons: 233.000000  magneticMoment: [ Abs: 0.64723  Tot: +0.55005 ]
	SubspaceRotationAdjust: set factor to 6.42
ElecMinimize: Iter:  79  G: -375.748962641437743  |grad|_K:  4.150e-07  alpha:  3.421e-02  linmin:  7.290e-08  t[s]:  12133.89
	FillingsUpdate:  mu: -0.060480739  nElectrons: 233.000000  magneticMoment: [ Abs: 0.64751  Tot: +0.55033 ]
	SubspaceRotationAdjust: set factor to 5.09
ElecMinimize: Iter:  80  G: -375.748964459127649  |grad|_K:  5.117e-07  alpha:  4.847e-02  linmin:  3.521e-07  t[s]:  12250.42
	FillingsUpdate:  mu: -0.060776695  nElectrons: 233.000000  magneticMoment: [ Abs: 0.64614  Tot: +0.55037 ]
	SubspaceRotationAdjust: set factor to 6.65
ElecMinimize: Iter:  81  G: -375.748966269125049  |grad|_K:  3.761e-07  alpha:  3.171e-02  linmin: -1.249e-07  t[s]:  12367.58
	FillingsUpdate:  mu: -0.061067425  nElectrons: 233.000000  magneticMoment: [ Abs: 0.64415  Tot: +0.55054 ]
	SubspaceRotationAdjust: set factor to 5.15
ElecMinimize: Iter:  82  G: -375.748967897455600  |grad|_K:  4.815e-07  alpha:  5.284e-02  linmin:  3.912e-07  t[s]:  12484.83
	FillingsUpdate:  mu: -0.060723166  nElectrons: 233.000000  magneticMoment: [ Abs: 0.64290  Tot: +0.55103 ]
	SubspaceRotationAdjust: set factor to 6.32
ElecMinimize: Iter:  83  G: -375.748969380613573  |grad|_K:  3.674e-07  alpha:  2.944e-02  linmin:  1.183e-07  t[s]:  12601.83
	FillingsUpdate:  mu: -0.060474651  nElectrons: 233.000000  magneticMoment: [ Abs: 0.64136  Tot: +0.55147 ]
	SubspaceRotationAdjust: set factor to 4.98
ElecMinimize: Iter:  84  G: -375.748971032983206  |grad|_K:  4.540e-07  alpha:  5.615e-02  linmin: -3.600e-07  t[s]:  12718.38
	FillingsUpdate:  mu: -0.060803355  nElectrons: 233.000000  magneticMoment: [ Abs: 0.63980  Tot: +0.55152 ]
	SubspaceRotationAdjust: set factor to 6.52
ElecMinimize: Iter:  85  G: -375.748972293453789  |grad|_K:  3.394e-07  alpha:  2.804e-02  linmin:  1.212e-07  t[s]:  12834.45
	FillingsUpdate:  mu: -0.060989817  nElectrons: 233.000000  magneticMoment: [ Abs: 0.63892  Tot: +0.55152 ]
	SubspaceRotationAdjust: set factor to 5.36
ElecMinimize: Iter:  86  G: -375.748973681514258  |grad|_K:  4.182e-07  alpha:  5.531e-02  linmin: -3.015e-07  t[s]:  12951.04
	FillingsUpdate:  mu: -0.060648551  nElectrons: 233.000000  magneticMoment: [ Abs: 0.63931  Tot: +0.55160 ]
	SubspaceRotationAdjust: set factor to 6.39
ElecMinimize: Iter:  87  G: -375.748974705329658  |grad|_K:  3.245e-07  alpha:  2.694e-02  linmin:  8.656e-07  t[s]:  13069.07
	FillingsUpdate:  mu: -0.060425820  nElectrons: 233.000000  magneticMoment: [ Abs: 0.64021  Tot: +0.55145 ]
	SubspaceRotationAdjust: set factor to 4.7
ElecMinimize: Iter:  88  G: -375.748975982186664  |grad|_K:  4.107e-07  alpha:  5.573e-02  linmin: -3.343e-07  t[s]:  13186.72
	FillingsUpdate:  mu: -0.060709270  nElectrons: 233.000000  magneticMoment: [ Abs: 0.64059  Tot: +0.55104 ]
	SubspaceRotationAdjust: set factor to 5.59
ElecMinimize: Iter:  89  G: -375.748976951687553  |grad|_K:  2.992e-07  alpha:  2.621e-02  linmin: -9.127e-07  t[s]:  13304.74
	FillingsUpdate:  mu: -0.060899178  nElectrons: 233.000000  magneticMoment: [ Abs: 0.64146  Tot: +0.55057 ]
	SubspaceRotationAdjust: set factor to 4.31
ElecMinimize: Iter:  90  G: -375.748978022093411  |grad|_K:  3.781e-07  alpha:  5.480e-02  linmin:  7.360e-07  t[s]:  13422.16
	FillingsUpdate:  mu: -0.060605108  nElectrons: 233.000000  magneticMoment: [ Abs: 0.64287  Tot: +0.55042 ]
	SubspaceRotationAdjust: set factor to 6.17
ElecMinimize: Iter:  91  G: -375.748978904901605  |grad|_K:  2.740e-07  alpha:  2.841e-02  linmin: -1.111e-07  t[s]:  13539.37
	FillingsUpdate:  mu: -0.060319536  nElectrons: 233.000000  magneticMoment: [ Abs: 0.64426  Tot: +0.55041 ]
	SubspaceRotationAdjust: set factor to 4.77
ElecMinimize: Iter:  92  G: -375.748979775337830  |grad|_K:  3.866e-07  alpha:  5.316e-02  linmin:  2.992e-07  t[s]:  13656.93
	FillingsUpdate:  mu: -0.060531062  nElectrons: 233.000000  magneticMoment: [ Abs: 0.64500  Tot: +0.55024 ]
	SubspaceRotationAdjust: set factor to 6.3
ElecMinimize: Iter:  93  G: -375.748980783292950  |grad|_K:  2.883e-07  alpha:  3.093e-02  linmin: -1.721e-07  t[s]:  13774.49
	FillingsUpdate:  mu: -0.060831194  nElectrons: 233.000000  magneticMoment: [ Abs: 0.64514  Tot: +0.55020 ]
	SubspaceRotationAdjust: set factor to 4.71
ElecMinimize: Iter:  94  G: -375.748981617377638  |grad|_K:  3.799e-07  alpha:  4.606e-02  linmin:  1.128e-06  t[s]:  13891.41
	FillingsUpdate:  mu: -0.060669237  nElectrons: 233.000000  magneticMoment: [ Abs: 0.64563  Tot: +0.55055 ]
	SubspaceRotationAdjust: set factor to 5.51
ElecMinimize: Iter:  95  G: -375.748982638651626  |grad|_K:  2.796e-07  alpha:  3.255e-02  linmin: -2.368e-07  t[s]:  14008.45
	FillingsUpdate:  mu: -0.060414718  nElectrons: 233.000000  magneticMoment: [ Abs: 0.64569  Tot: +0.55093 ]
	SubspaceRotationAdjust: set factor to 4.31
ElecMinimize: Iter:  96  G: -375.748983414807128  |grad|_K:  3.412e-07  alpha:  4.548e-02  linmin: -6.063e-07  t[s]:  14125.45
	FillingsUpdate:  mu: -0.060588225  nElectrons: 233.000000  magneticMoment: [ Abs: 0.64463  Tot: +0.55116 ]
	SubspaceRotationAdjust: set factor to 4.55
ElecMinimize: Iter:  97  G: -375.748984434067097  |grad|_K:  2.649e-07  alpha:  4.007e-02  linmin: -1.701e-08  t[s]:  14242.94
	FillingsUpdate:  mu: -0.060863273  nElectrons: 233.000000  magneticMoment: [ Abs: 0.64344  Tot: +0.55121 ]
	SubspaceRotationAdjust: set factor to 3.94
ElecMinimize: Iter:  98  G: -375.748985141042112  |grad|_K:  2.862e-07  alpha:  4.621e-02  linmin: -1.953e-07  t[s]:  14359.74
	FillingsUpdate:  mu: -0.060774009  nElectrons: 233.000000  magneticMoment: [ Abs: 0.64250  Tot: +0.55135 ]
	SubspaceRotationAdjust: set factor to 5.7
ElecMinimize: Iter:  99  G: -375.748985940243870  |grad|_K:  2.241e-07  alpha:  4.474e-02  linmin: -2.073e-07  t[s]:  14476.88
	FillingsUpdate:  mu: -0.060566428  nElectrons: 233.000000  magneticMoment: [ Abs: 0.64215  Tot: +0.55144 ]
	SubspaceRotationAdjust: set factor to 5.5
ElecMinimize: Iter: 100  G: -375.748986456350508  |grad|_K:  2.517e-07  alpha:  4.714e-02  linmin: -5.018e-07  t[s]:  14593.80
ElecMinimize: None of the convergence criteria satisfied after 100 iterations.
Setting wave functions to eigenvectors of Hamiltonian
Converging empty states (this may take a while): |deigs|: 4.574e-03
Vacuum energy after initial minimize, F = -375.748986456350508

Shifting auxilliary hamiltonian by -0.066634 to set nElectrons=233.000000

-------- Electronic minimization -----------
	Linear fluid (dielectric constant: 78.4, screening length: 8.12261 Bohr) occupying 0.705756 of unit cell:	Completed after 23 iterations at t[s]:  15235.28
	FillingsUpdate:  mu: -0.127200000  nElectrons: 233.000000  magneticMoment: [ Abs: 0.64082  Tot: +0.55034 ]
ElecMinimize: Iter:   0  G: -375.757825829833735  |grad|_K:  1.280e-05  alpha:  1.000e+00
	Linear fluid (dielectric constant: 78.4, screening length: 8.12261 Bohr) occupying 0.774551 of unit cell:	Completed after 34 iterations at t[s]:  15357.96
	Linear fluid (dielectric constant: 78.4, screening length: 8.12261 Bohr) occupying 0.706000 of unit cell:	Completed after 27 iterations at t[s]:  15412.37
	FillingsUpdate:  mu: -0.127200000  nElectrons: 233.070841  magneticMoment: [ Abs: 0.70494  Tot: +0.61980 ]
	SubspaceRotationAdjust: set factor to 2.86
ElecMinimize: Iter:   1  G: -375.757958767047398  |grad|_K:  1.677e-05  alpha:  1.100e-02  linmin:  3.109e-03  t[s]:  15463.67
	Linear fluid (dielectric constant: 78.4, screening length: 8.12261 Bohr) occupying 0.706226 of unit cell:	Completed after 13 iterations at t[s]:  15514.93
	Linear fluid (dielectric constant: 78.4, screening length: 8.12261 Bohr) occupying 0.706659 of unit cell:	Completed after 14 iterations at t[s]:  15560.41
	FillingsUpdate:  mu: -0.127200000  nElectrons: 233.162961  magneticMoment: [ Abs: 0.76716  Tot: +0.69439 ]
	SubspaceRotationAdjust: set factor to 1.49
ElecMinimize: Iter:   2  G: -375.758750276874309  |grad|_K:  1.706e-05  alpha:  3.042e-02  linmin: -1.056e-04  t[s]:  15611.27
	Linear fluid (dielectric constant: 78.4, screening length: 8.12261 Bohr) occupying 0.706684 of unit cell:	Completed after 17 iterations at t[s]:  15664.91
	Linear fluid (dielectric constant: 78.4, screening length: 8.12261 Bohr) occupying 0.706640 of unit cell:	Completed after 17 iterations at t[s]:  15712.70
	FillingsUpdate:  mu: -0.127200000  nElectrons: 233.134699  magneticMoment: [ Abs: 0.72485  Tot: +0.65378 ]
	SubspaceRotationAdjust: set factor to 0.714
	SubspaceRotationAdjust: resetting CG because factor has changed by 0.129741
	Linear fluid (dielectric constant: 78.4, screening length: 8.12261 Bohr) occupying 0.706640 of unit cell:	Completed after 0 iterations at t[s]:  15786.25
ElecMinimize: 	State modified externally: resetting search direction.
ElecMinimize: Iter:   3  G: -375.759466972454334  |grad|_K:  3.260e-06  alpha:  1.151e-02
	Linear fluid (dielectric constant: 78.4, screening length: 8.12261 Bohr) occupying 0.706647 of unit cell:	Completed after 2 iterations at t[s]:  15881.27
ElecMinimize: 	Predicted alpha/alphaT>3.000000, increasing alphaT to 3.452222e-02.
	Linear fluid (dielectric constant: 78.4, screening length: 8.12261 Bohr) occupying 0.706660 of unit cell:	Completed after 3 iterations at t[s]:  15919.99
ElecMinimize: 	Predicted alpha/alphaT>3.000000, increasing alphaT to 1.035667e-01.
	Linear fluid (dielectric constant: 78.4, screening length: 8.12261 Bohr) occupying 0.706701 of unit cell:	Completed after 7 iterations at t[s]:  15961.21
ElecMinimize: 	Predicted alpha/alphaT>3.000000, increasing alphaT to 3.107000e-01.
	Linear fluid (dielectric constant: 78.4, screening length: 8.12261 Bohr) occupying 0.706919 of unit cell:	Completed after 12 iterations at t[s]:  16005.65
	FillingsUpdate:  mu: -0.127200000  nElectrons: 233.143837  magneticMoment: [ Abs: 0.75467  Tot: +0.67766 ]
	SubspaceRotationAdjust: set factor to 0.41
ElecMinimize: Iter:   4  G: -375.760488747632280  |grad|_K:  6.264e-06  alpha:  4.449e-01  linmin:  9.700e-05  t[s]:  16056.91
	Linear fluid (dielectric constant: 78.4, screening length: 8.12261 Bohr) occupying 0.706622 of unit cell:	Completed after 20 iterations at t[s]:  16112.73
	Linear fluid (dielectric constant: 78.4, screening length: 8.12261 Bohr) occupying 0.706826 of unit cell:	Completed after 20 iterations at t[s]:  16162.46
	FillingsUpdate:  mu: -0.127200000  nElectrons: 233.092440  magneticMoment: [ Abs: 0.71376  Tot: +0.63154 ]
	SubspaceRotationAdjust: set factor to 0.551
ElecMinimize: Iter:   5  G: -375.760998893775650  |grad|_K:  2.058e-06  alpha:  5.303e-02  linmin: -8.826e-04  t[s]:  16213.83
	Linear fluid (dielectric constant: 78.4, screening length: 8.12261 Bohr) occupying 0.706838 of unit cell:	Completed after 7 iterations at t[s]:  16261.14
ElecMinimize: 	Predicted alpha/alphaT>3.000000, increasing alphaT to 1.590950e-01.
	Linear fluid (dielectric constant: 78.4, screening length: 8.12261 Bohr) occupying 0.706863 of unit cell:	Completed after 10 iterations at t[s]:  16304.26
	Linear fluid (dielectric constant: 78.4, screening length: 8.12261 Bohr) occupying 0.706902 of unit cell:	Completed after 11 iterations at t[s]:  16348.31
	FillingsUpdate:  mu: -0.127200000  nElectrons: 233.062243  magneticMoment: [ Abs: 0.68771  Tot: +0.60257 ]
	SubspaceRotationAdjust: set factor to 0.305
ElecMinimize: Iter:   6  G: -375.761329548284948  |grad|_K:  4.485e-06  alpha:  3.207e-01  linmin:  1.367e-05  t[s]:  16399.76
	Linear fluid (dielectric constant: 78.4, screening length: 8.12261 Bohr) occupying 0.708339 of unit cell:	Completed after 17 iterations at t[s]:  16453.71
	Linear fluid (dielectric constant: 78.4, screening length: 8.12261 Bohr) occupying 0.707323 of unit cell:	Completed after 17 iterations at t[s]:  16501.63
	FillingsUpdate:  mu: -0.127200000  nElectrons: 233.091273  magneticMoment: [ Abs: 0.71762  Tot: +0.63180 ]
	SubspaceRotationAdjust: set factor to 0.37
ElecMinimize: Iter:   7  G: -375.761753806194292  |grad|_K:  1.572e-06  alpha:  9.927e-02  linmin:  1.067e-04  t[s]:  16552.96
	Linear fluid (dielectric constant: 78.4, screening length: 8.12261 Bohr) occupying 0.707432 of unit cell:	Completed after 13 iterations at t[s]:  16604.19
	Linear fluid (dielectric constant: 78.4, screening length: 8.12261 Bohr) occupying 0.707433 of unit cell:	Completed after 0 iterations at t[s]:  16640.40
	FillingsUpdate:  mu: -0.127200000  nElectrons: 233.107829  magneticMoment: [ Abs: 0.73326  Tot: +0.64804 ]
	SubspaceRotationAdjust: set factor to 0.258
ElecMinimize: Iter:   8  G: -375.761807101576096  |grad|_K:  1.155e-06  alpha:  1.007e-01  linmin: -1.315e-04  t[s]:  16691.80
	Linear fluid (dielectric constant: 78.4, screening length: 8.12261 Bohr) occupying 0.707454 of unit cell:	Completed after 3 iterations at t[s]:  16736.64
ElecMinimize: 	Predicted alpha/alphaT>3.000000, increasing alphaT to 3.020979e-01.
	Linear fluid (dielectric constant: 78.4, screening length: 8.12261 Bohr) occupying 0.707496 of unit cell:	Completed after 7 iterations at t[s]:  16778.00
	Linear fluid (dielectric constant: 78.4, screening length: 8.12261 Bohr) occupying 0.707507 of unit cell:	Completed after 2 iterations at t[s]:  16815.98
	FillingsUpdate:  mu: -0.127200000  nElectrons: 233.112258  magneticMoment: [ Abs: 0.73665  Tot: +0.65153 ]
	SubspaceRotationAdjust: set factor to 0.197
ElecMinimize: Iter:   9  G: -375.761910980152038  |grad|_K:  9.911e-07  alpha:  3.505e-01  linmin: -5.923e-05  t[s]:  16867.07
	Linear fluid (dielectric constant: 78.4, screening length: 8.12261 Bohr) occupying 0.707406 of unit cell:	Completed after 13 iterations at t[s]:  16918.51
	Linear fluid (dielectric constant: 78.4, screening length: 8.12261 Bohr) occupying 0.707473 of unit cell:	Completed after 13 iterations at t[s]:  16963.66
	FillingsUpdate:  mu: -0.127200000  nElectrons: 233.103309  magneticMoment: [ Abs: 0.72795  Tot: +0.64241 ]
	SubspaceRotationAdjust: set factor to 0.139
ElecMinimize: Iter:  10  G: -375.761936083945102  |grad|_K:  4.958e-07  alpha:  1.159e-01  linmin: -2.680e-05  t[s]:  17014.85
	Linear fluid (dielectric constant: 78.4, screening length: 8.12261 Bohr) occupying 0.707466 of unit cell:	Completed after 3 iterations at t[s]:  17059.84
ElecMinimize: 	Predicted alpha/alphaT>3.000000, increasing alphaT to 3.476982e-01.
	Linear fluid (dielectric constant: 78.4, screening length: 8.12261 Bohr) occupying 0.707454 of unit cell:	Completed after 3 iterations at t[s]:  17098.56
	Linear fluid (dielectric constant: 78.4, screening length: 8.12261 Bohr) occupying 0.707453 of unit cell:	Completed after 2 iterations at t[s]:  17136.53
	FillingsUpdate:  mu: -0.127200000  nElectrons: 233.100876  magneticMoment: [ Abs: 0.72536  Tot: +0.63966 ]
	SubspaceRotationAdjust: set factor to 0.111
ElecMinimize: Iter:  11  G: -375.761955973693318  |grad|_K:  5.246e-07  alpha:  3.710e-01  linmin:  5.713e-05  t[s]:  17187.52
	Linear fluid (dielectric constant: 78.4, screening length: 8.12261 Bohr) occupying 0.707479 of unit cell:	Completed after 9 iterations at t[s]:  17236.31
	Linear fluid (dielectric constant: 78.4, screening length: 8.12261 Bohr) occupying 0.707469 of unit cell:	Completed after 5 iterations at t[s]:  17276.20
	FillingsUpdate:  mu: -0.127200000  nElectrons: 233.107093  magneticMoment: [ Abs: 0.73107  Tot: +0.64556 ]
	SubspaceRotationAdjust: set factor to 0.144
ElecMinimize: Iter:  12  G: -375.761969695881703  |grad|_K:  2.801e-07  alpha:  2.289e-01  linmin:  9.588e-05  t[s]:  17327.44
	Linear fluid (dielectric constant: 78.4, screening length: 8.12261 Bohr) occupying 0.707472 of unit cell:	Completed after 3 iterations at t[s]:  17372.32
	Linear fluid (dielectric constant: 78.4, screening length: 8.12261 Bohr) occupying 0.707473 of unit cell:	Completed after 2 iterations at t[s]:  17410.20
	FillingsUpdate:  mu: -0.127200000  nElectrons: 233.109983  magneticMoment: [ Abs: 0.73391  Tot: +0.64835 ]
	SubspaceRotationAdjust: set factor to 0.131
ElecMinimize: Iter:  13  G: -375.761974356589178  |grad|_K:  2.316e-07  alpha:  2.746e-01  linmin: -4.820e-05  t[s]:  17461.31
	Linear fluid (dielectric constant: 78.4, screening length: 8.12261 Bohr) occupying 0.707457 of unit cell:	Completed after 3 iterations at t[s]:  17506.22
	Linear fluid (dielectric constant: 78.4, screening length: 8.12261 Bohr) occupying 0.707455 of unit cell:	Completed after 0 iterations at t[s]:  17542.19
	FillingsUpdate:  mu: -0.127200000  nElectrons: 233.108348  magneticMoment: [ Abs: 0.73263  Tot: +0.64672 ]
	SubspaceRotationAdjust: set factor to 0.159
ElecMinimize: Iter:  14  G: -375.761977971453234  |grad|_K:  1.699e-07  alpha:  3.073e-01  linmin: -1.778e-04  t[s]:  17593.04
	Linear fluid (dielectric constant: 78.4, screening length: 8.12261 Bohr) occupying 0.707439 of unit cell:	Completed after 4 iterations at t[s]:  17638.77
	Linear fluid (dielectric constant: 78.4, screening length: 8.12261 Bohr) occupying 0.707442 of unit cell:	Completed after 2 iterations at t[s]:  17676.63
	FillingsUpdate:  mu: -0.127200000  nElectrons: 233.106988  magneticMoment: [ Abs: 0.73155  Tot: +0.64538 ]
	SubspaceRotationAdjust: set factor to 0.141
ElecMinimize: Iter:  15  G: -375.761979481422998  |grad|_K:  1.530e-07  alpha:  2.463e-01  linmin: -2.727e-04  t[s]:  17729.27
	Linear fluid (dielectric constant: 78.4, screening length: 8.12261 Bohr) occupying 0.707442 of unit cell:	Completed after 3 iterations at t[s]:  17774.01
	Linear fluid (dielectric constant: 78.4, screening length: 8.12261 Bohr) occupying 0.707442 of unit cell:	Completed after 0 iterations at t[s]:  17809.91
	FillingsUpdate:  mu: -0.127200000  nElectrons: 233.108258  magneticMoment: [ Abs: 0.73297  Tot: +0.64666 ]
	SubspaceRotationAdjust: set factor to 0.226
ElecMinimize: Iter:  16  G: -375.761980777477390  |grad|_K:  9.960e-08  alpha:  2.404e-01  linmin:  1.275e-05  t[s]:  17860.65
	Linear fluid (dielectric constant: 78.4, screening length: 8.12261 Bohr) occupying 0.707446 of unit cell:	Completed after 2 iterations at t[s]:  17904.87
	Linear fluid (dielectric constant: 78.4, screening length: 8.12261 Bohr) occupying 0.707447 of unit cell:	Completed after 0 iterations at t[s]:  17941.06
	FillingsUpdate:  mu: -0.127200000  nElectrons: 233.109933  magneticMoment: [ Abs: 0.73470  Tot: +0.64832 ]
	SubspaceRotationAdjust: set factor to 0.198
ElecMinimize: Iter:  17  G: -375.761981403568882  |grad|_K:  8.587e-08  alpha:  2.858e-01  linmin: -2.386e-04  t[s]:  17992.24
	Linear fluid (dielectric constant: 78.4, screening length: 8.12261 Bohr) occupying 0.707444 of unit cell:	Completed after 2 iterations at t[s]:  18036.69
	Linear fluid (dielectric constant: 78.4, screening length: 8.12261 Bohr) occupying 0.707444 of unit cell:	Completed after 0 iterations at t[s]:  18072.64
	FillingsUpdate:  mu: -0.127200000  nElectrons: 233.110038  magneticMoment: [ Abs: 0.73497  Tot: +0.64844 ]
	SubspaceRotationAdjust: set factor to 0.272
ElecMinimize: Iter:  18  G: -375.761981924096347  |grad|_K:  5.783e-08  alpha:  2.904e-01  linmin: -6.752e-05  t[s]:  18123.42
	Linear fluid (dielectric constant: 78.4, screening length: 8.12261 Bohr) occupying 0.707440 of unit cell:	Completed after 2 iterations at t[s]:  18167.86
	Linear fluid (dielectric constant: 78.4, screening length: 8.12261 Bohr) occupying 0.707441 of unit cell:	Completed after 0 iterations at t[s]:  18204.18
	FillingsUpdate:  mu: -0.127200000  nElectrons: 233.109400  magneticMoment: [ Abs: 0.73448  Tot: +0.64781 ]
	SubspaceRotationAdjust: set factor to 0.219
ElecMinimize: Iter:  19  G: -375.761982113255385  |grad|_K:  7.348e-08  alpha:  2.398e-01  linmin:  1.388e-04  t[s]:  18255.16
[...]
disp Ti   0.000000000000000   0.000000000000000   0.000000000000000
disp O   0.000932612887176  -0.000775802719537  -0.000365754321933
disp O   0.001184617456442  -0.001034668241619   0.000099291987034
disp O  -0.000597849787826   0.000461359590814   0.000714586160763
disp H   0.001704208216222   0.000129222717590  -0.012995416549960
disp H   0.006643681681945   0.000099732447554  -0.003810533263733
disp H  -0.000624620609230  -0.006316759649067  -0.003963459228626

Real mode 14:
Frequency: 0.007041 Eh [ 1545 cm^-1 ]
Degeneracy: 1 of 1
IR intensity: 0.1131 e^2/amu [ 110.3 km/mol ]
Displacements:
disp C   0.000000000000000   0.000000000000000   0.000000000000000
disp C   0.000000000000000   0.000000000000000   0.000000000000000
disp C   0.000000000000000   0.000000000000000   0.000000000000000
disp C   0.000000000000000   0.000000000000000   0.000000000000000
disp C   0.000000000000000   0.000000000000000   0.000000000000000
disp C   0.000000000000000   0.000000000000000   0.000000000000000
disp C   0.000000000000000   0.000000000000000   0.000000000000000
disp C   0.000000000000000   0.000000000000000   0.000000000000000
disp C   0.000000000000000   0.000000000000000   0.000000000000000
disp C   0.000000000000000   0.000000000000000   0.000000000000000
disp C   0.000000000000000   0.000000000000000   0.000000000000000
disp C   0.000000000000000   0.000000000000000   0.000000000000000
disp C   0.000000000000000   0.000000000000000   0.000000000000000
disp C   0.000000000000000   0.000000000000000   0.000000000000000
disp C   0.000000000000000   0.000000000000000   0.000000000000000
disp C   0.000000000000000   0.000000000000000   0.000000000000000
disp C   0.000000000000000   0.000000000000000   0.000000000000000
disp C   0.000000000000000   0.000000000000000   0.000000000000000
disp C   0.000000000000000   0.000000000000000   0.000000000000000
disp C   0.000000000000000   0.000000000000000   0.000000000000000
disp C   0.000000000000000   0.000000000000000   0.000000000000000
disp C   0.000000000000000   0.000000000000000   0.000000000000000
disp C   0.000000000000000   0.000000000000000   0.000000000000000
disp C   0.000000000000000   0.000000000000000   0.000000000000000
disp C   0.000000000000000   0.000000000000000   0.000000000000000
disp C   0.000000000000000   0.000000000000000   0.000000000000000
disp C   0.000000000000000   0.000000000000000   0.000000000000000
disp C   0.000000000000000   0.000000000000000   0.000000000000000
disp C   0.000000000000000   0.000000000000000   0.000000000000000
disp C   0.000000000000000   0.000000000000000   0.000000000000000
disp C   0.000000000000000   0.000000000000000   0.000000000000000
disp C   0.000000000000000   0.000000000000000   0.000000000000000
disp C   0.000000000000000   0.000000000000000   0.000000000000000
disp C   0.000000000000000   0.000000000000000   0.000000000000000
disp C   0.000000000000000   0.000000000000000   0.000000000000000
disp C   0.000000000000000   0.000000000000000   0.000000000000000
disp C   0.000000000000000   0.000000000000000   0.000000000000000
disp C   0.000000000000000   0.000000000000000   0.000000000000000
disp C   0.000000000000000   0.000000000000000   0.000000000000000
disp C   0.000000000000000   0.000000000000000   0.000000000000000
disp C   0.000000000000000   0.000000000000000   0.000000000000000
disp C   0.000000000000000   0.000000000000000   0.000000000000000
disp C   0.000000000000000   0.000000000000000   0.000000000000000
disp C   0.000000000000000   0.000000000000000   0.000000000000000
disp C  -0.001092236297235   0.001098689979778   0.000712599289425
disp N   0.000000000000000   0.000000000000000   0.000000000000000
disp N   0.000000000000000   0.000000000000000   0.000000000000000
disp N   0.000000000000000   0.000000000000000   0.000000000000000
disp N   0.000000000000000   0.000000000000000   0.000000000000000
disp Ti   0.000000000000000   0.000000000000000   0.000000000000000
disp O   0.000404313545423  -0.000331501717635   0.000030961547928
disp O   0.000526142947573  -0.000448203963685   0.000032634384511
disp O   0.000867933568424  -0.000655168884655  -0.000721419669416
disp H   0.001733039013122  -0.000409526520830  -0.009320298515469
disp H  -0.012118012565719   0.000335462088554   0.006247200526241
disp H  -0.000025789187240   0.012462130179109   0.006268140230565

Real mode 15:
Frequency: 0.011278 Eh [ 2475 cm^-1 ]
Degeneracy: 1 of 1
IR intensity: 4.8944 e^2/amu [ 4771.5 km/mol ]
Displacements:
disp C   0.000000000000000   0.000000000000000   0.000000000000000
disp C   0.000000000000000   0.000000000000000   0.000000000000000
disp C   0.000000000000000   0.000000000000000   0.000000000000000
disp C   0.000000000000000   0.000000000000000   0.000000000000000
disp C   0.000000000000000   0.000000000000000   0.000000000000000
disp C   0.000000000000000   0.000000000000000   0.000000000000000
disp C   0.000000000000000   0.000000000000000   0.000000000000000
disp C   0.000000000000000   0.000000000000000   0.000000000000000
disp C   0.000000000000000   0.000000000000000   0.000000000000000
disp C   0.000000000000000   0.000000000000000   0.000000000000000
disp C   0.000000000000000   0.000000000000000   0.000000000000000
disp C   0.000000000000000   0.000000000000000   0.000000000000000
disp C   0.000000000000000   0.000000000000000   0.000000000000000
disp C   0.000000000000000   0.000000000000000   0.000000000000000
disp C   0.000000000000000   0.000000000000000   0.000000000000000
disp C   0.000000000000000   0.000000000000000   0.000000000000000
disp C   0.000000000000000   0.000000000000000   0.000000000000000
disp C   0.000000000000000   0.000000000000000   0.000000000000000
disp C   0.000000000000000   0.000000000000000   0.000000000000000
disp C   0.000000000000000   0.000000000000000   0.000000000000000
disp C   0.000000000000000   0.000000000000000   0.000000000000000
disp C   0.000000000000000   0.000000000000000   0.000000000000000
disp C   0.000000000000000   0.000000000000000   0.000000000000000
disp C   0.000000000000000   0.000000000000000   0.000000000000000
disp C   0.000000000000000   0.000000000000000   0.000000000000000
disp C   0.000000000000000   0.000000000000000   0.000000000000000
disp C   0.000000000000000   0.000000000000000   0.000000000000000
disp C   0.000000000000000   0.000000000000000   0.000000000000000
disp C   0.000000000000000   0.000000000000000   0.000000000000000
disp C   0.000000000000000   0.000000000000000   0.000000000000000
disp C   0.000000000000000   0.000000000000000   0.000000000000000
disp C   0.000000000000000   0.000000000000000   0.000000000000000
disp C   0.000000000000000   0.000000000000000   0.000000000000000
disp C   0.000000000000000   0.000000000000000   0.000000000000000
disp C   0.000000000000000   0.000000000000000   0.000000000000000
disp C   0.000000000000000   0.000000000000000   0.000000000000000
disp C   0.000000000000000   0.000000000000000   0.000000000000000
disp C   0.000000000000000   0.000000000000000   0.000000000000000
disp C   0.000000000000000   0.000000000000000   0.000000000000000
disp C   0.000000000000000   0.000000000000000   0.000000000000000
disp C   0.000000000000000   0.000000000000000   0.000000000000000
disp C   0.000000000000000   0.000000000000000   0.000000000000000
disp C   0.000000000000000   0.000000000000000   0.000000000000000
disp C   0.000000000000000   0.000000000000000   0.000000000000000
disp C   0.000135136380448  -0.000149352669217  -0.000496553456824
disp N   0.000000000000000   0.000000000000000   0.000000000000000
disp N   0.000000000000000   0.000000000000000   0.000000000000000
disp N   0.000000000000000   0.000000000000000   0.000000000000000
disp N   0.000000000000000   0.000000000000000   0.000000000000000
disp Ti   0.000000000000000   0.000000000000000   0.000000000000000
disp O   0.001117026000274  -0.001111496552307   0.000305447859180
disp O  -0.000123497814454   0.000096169767848   0.000073549261021
disp O  -0.000089935063400   0.000035369940655  -0.000036636764200
disp H  -0.016692140048870   0.014634965689926  -0.002062796941117
disp H  -0.000415581021735   0.001011115558483   0.000422540250917
disp H  -0.000843174199804   0.000317109752677   0.000212989972704

Real mode 16:
Frequency: 0.017015 Eh [ 3734 cm^-1 ]
Degeneracy: 1 of 1
IR intensity: 3.3894 e^2/amu [ 3304.3 km/mol ]
Displacements:
disp C   0.000000000000000   0.000000000000000   0.000000000000000
disp C   0.000000000000000   0.000000000000000   0.000000000000000
disp C   0.000000000000000   0.000000000000000   0.000000000000000
disp C   0.000000000000000   0.000000000000000   0.000000000000000
disp C   0.000000000000000   0.000000000000000   0.000000000000000
disp C   0.000000000000000   0.000000000000000   0.000000000000000
disp C   0.000000000000000   0.000000000000000   0.000000000000000
disp C   0.000000000000000   0.000000000000000   0.000000000000000
disp C   0.000000000000000   0.000000000000000   0.000000000000000
disp C   0.000000000000000   0.000000000000000   0.000000000000000
disp C   0.000000000000000   0.000000000000000   0.000000000000000
disp C   0.000000000000000   0.000000000000000   0.000000000000000
disp C   0.000000000000000   0.000000000000000   0.000000000000000
disp C   0.000000000000000   0.000000000000000   0.000000000000000
disp C   0.000000000000000   0.000000000000000   0.000000000000000
disp C   0.000000000000000   0.000000000000000   0.000000000000000
disp C   0.000000000000000   0.000000000000000   0.000000000000000
disp C   0.000000000000000   0.000000000000000   0.000000000000000
disp C   0.000000000000000   0.000000000000000   0.000000000000000
disp C   0.000000000000000   0.000000000000000   0.000000000000000
disp C   0.000000000000000   0.000000000000000   0.000000000000000
disp C   0.000000000000000   0.000000000000000   0.000000000000000
disp C   0.000000000000000   0.000000000000000   0.000000000000000
disp C   0.000000000000000   0.000000000000000   0.000000000000000
disp C   0.000000000000000   0.000000000000000   0.000000000000000
disp C   0.000000000000000   0.000000000000000   0.000000000000000
disp C   0.000000000000000   0.000000000000000   0.000000000000000
disp C   0.000000000000000   0.000000000000000   0.000000000000000
disp C   0.000000000000000   0.000000000000000   0.000000000000000
disp C   0.000000000000000   0.000000000000000   0.000000000000000
disp C   0.000000000000000   0.000000000000000   0.000000000000000
disp C   0.000000000000000   0.000000000000000   0.000000000000000
disp C   0.000000000000000   0.000000000000000   0.000000000000000
disp C   0.000000000000000   0.000000000000000   0.000000000000000
disp C   0.000000000000000   0.000000000000000   0.000000000000000
disp C   0.000000000000000   0.000000000000000   0.000000000000000
disp C   0.000000000000000   0.000000000000000   0.000000000000000
disp C   0.000000000000000   0.000000000000000   0.000000000000000
disp C   0.000000000000000   0.000000000000000   0.000000000000000
disp C   0.000000000000000   0.000000000000000   0.000000000000000
disp C   0.000000000000000   0.000000000000000   0.000000000000000
disp C   0.000000000000000   0.000000000000000   0.000000000000000
disp C   0.000000000000000   0.000000000000000   0.000000000000000
disp C   0.000000000000000   0.000000000000000   0.000000000000000
disp C   0.000007198268713  -0.000007325279753   0.000009012648012
disp N   0.000000000000000   0.000000000000000   0.000000000000000
disp N   0.000000000000000   0.000000000000000   0.000000000000000
disp N   0.000000000000000   0.000000000000000   0.000000000000000
disp N   0.000000000000000   0.000000000000000   0.000000000000000
disp Ti   0.000000000000000   0.000000000000000   0.000000000000000
disp O   0.000037242904440  -0.000037309215795  -0.000000022586145
disp O  -0.000002353604115   0.000003131361190   0.000004440987106
disp O  -0.000142637504670   0.001055080062055   0.000757828399934
disp H  -0.000836789863172   0.000722996719709   0.000013015896787
disp H  -0.005640004711673  -0.018536252829894  -0.008084638915869
disp H   0.007711954602030   0.002490442864387  -0.003072302417175

Real mode 17:
Frequency: 0.017417 Eh [ 3823 cm^-1 ]
Degeneracy: 1 of 1
IR intensity: 0.2835 e^2/amu [ 276.4 km/mol ]
Displacements:
disp C   0.000000000000000   0.000000000000000   0.000000000000000
disp C   0.000000000000000   0.000000000000000   0.000000000000000
disp C   0.000000000000000   0.000000000000000   0.000000000000000
disp C   0.000000000000000   0.000000000000000   0.000000000000000
disp C   0.000000000000000   0.000000000000000   0.000000000000000
disp C   0.000000000000000   0.000000000000000   0.000000000000000
disp C   0.000000000000000   0.000000000000000   0.000000000000000
disp C   0.000000000000000   0.000000000000000   0.000000000000000
disp C   0.000000000000000   0.000000000000000   0.000000000000000
disp C   0.000000000000000   0.000000000000000   0.000000000000000
disp C   0.000000000000000   0.000000000000000   0.000000000000000
disp C   0.000000000000000   0.000000000000000   0.000000000000000
disp C   0.000000000000000   0.000000000000000   0.000000000000000
disp C   0.000000000000000   0.000000000000000   0.000000000000000
disp C   0.000000000000000   0.000000000000000   0.000000000000000
disp C   0.000000000000000   0.000000000000000   0.000000000000000
disp C   0.000000000000000   0.000000000000000   0.000000000000000
disp C   0.000000000000000   0.000000000000000   0.000000000000000
disp C   0.000000000000000   0.000000000000000   0.000000000000000
disp C   0.000000000000000   0.000000000000000   0.000000000000000
disp C   0.000000000000000   0.000000000000000   0.000000000000000
disp C   0.000000000000000   0.000000000000000   0.000000000000000
disp C   0.000000000000000   0.000000000000000   0.000000000000000
disp C   0.000000000000000   0.000000000000000   0.000000000000000
disp C   0.000000000000000   0.000000000000000   0.000000000000000
disp C   0.000000000000000   0.000000000000000   0.000000000000000
disp C   0.000000000000000   0.000000000000000   0.000000000000000
disp C   0.000000000000000   0.000000000000000   0.000000000000000
disp C   0.000000000000000   0.000000000000000   0.000000000000000
disp C   0.000000000000000   0.000000000000000   0.000000000000000
disp C   0.000000000000000   0.000000000000000   0.000000000000000
disp C   0.000000000000000   0.000000000000000   0.000000000000000
disp C   0.000000000000000   0.000000000000000   0.000000000000000
disp C   0.000000000000000   0.000000000000000   0.000000000000000
disp C   0.000000000000000   0.000000000000000   0.000000000000000
disp C   0.000000000000000   0.000000000000000   0.000000000000000
disp C   0.000000000000000   0.000000000000000   0.000000000000000
disp C   0.000000000000000   0.000000000000000   0.000000000000000
disp C   0.000000000000000   0.000000000000000   0.000000000000000
disp C   0.000000000000000   0.000000000000000   0.000000000000000
disp C   0.000000000000000   0.000000000000000   0.000000000000000
disp C   0.000000000000000   0.000000000000000   0.000000000000000
disp C   0.000000000000000   0.000000000000000   0.000000000000000
disp C   0.000000000000000   0.000000000000000   0.000000000000000
disp C   0.000001268248043  -0.000002130971818  -0.000016713291452
disp N   0.000000000000000   0.000000000000000   0.000000000000000
disp N   0.000000000000000   0.000000000000000   0.000000000000000
disp N   0.000000000000000   0.000000000000000   0.000000000000000
disp N   0.000000000000000   0.000000000000000   0.000000000000000
disp Ti   0.000000000000000   0.000000000000000   0.000000000000000
disp O  -0.000007699881838   0.000008273339810   0.000001108227566
disp O  -0.000007049116255   0.000005783464808  -0.000002206501170
disp O   0.001288628479980   0.000796946567885  -0.000376254107689
disp H   0.000204959525540  -0.000188372245173   0.000016491605571
disp H  -0.001879427765846  -0.007339584283853  -0.003509316897453
disp H  -0.018423493177423  -0.005194870194001   0.008328124482439

Vibrational free energy components at T = 298 K:
	ZPE:          0.045828
	Evib:         0.049347
	TSvib:        0.006050
	Avib:         0.043297


Dumping 'jdft.n_up' ... done
Dumping 'jdft.n_dn' ... done
Dumping 'jdft.tau_up' ... done
Dumping 'jdft.tau_dn' ... done
Dumping 'jdft.eigenvals' ... done
Dumping 'jdft.eigStats' ... 
	eMin: -2.256420 at state 7 ( [ -0.333333 +0.333333 +0.000000 ] spin 1 )
	HOMO: -0.127662 at state 1 ( [ +0.000000 +0.333333 +0.000000 ] spin 1 )
	mu  : -0.127200
	LUMO: -0.125500 at state 4 ( [ +0.333333 +0.333333 +0.000000 ] spin 1 )
	eMax: +0.022746 at state 9 ( [ +0.000000 +0.000000 +0.000000 ] spin -1 )
	HOMO-LUMO gap: +0.002162
	Optical gap  : +0.003916 at state 1 ( [ +0.000000 +0.333333 +0.000000 ] spin 1 )
Dumping 'jdft.kPts' ... done
Dumping 'jdft.dosUp' ... done.
Dumping 'jdft.dosDn' ... done.
End date and time: Thu Nov 10 03:08:41 2022  (Duration: 0-13:59:53.82)
Done!

PROFILER:             augmentDensityGrid     0.797858 +/-     1.059157 s, 3670 calls,   2928.137639 s total
PROFILER:         augmentDensityGridGrad     0.472798 +/-     0.596959 s, 2000 calls,    945.595947 s total
PROFILER:        augmentDensitySpherical     0.000352 +/-     0.000468 s, 3670 calls,      1.292415 s total
PROFILER:    augmentDensitySphericalGrad     0.000352 +/-     0.000485 s, 2495 calls,      0.878202 s total
PROFILER:                 augmentOverlap     1.367704 +/-     1.975699 s, 7730 calls,  10572.351898 s total
PROFILER:        ColumnBundle::randomize     0.004938 +/-     0.000000 s,    1 calls,      0.004938 s total
PROFILER:                     diagouterI    14.232170 +/-     2.149808 s,  737 calls,  10489.109553 s total
PROFILER:              EdensityAndVscloc     6.168226 +/-     4.548777 s,  735 calls,   4533.646417 s total
PROFILER:                     EnlAndGrad     0.001189 +/-     0.001774 s, 4005 calls,      4.762690 s total
PROFILER:            ExCorrCommunication     0.091472 +/-     0.157135 s, 4654 calls,    425.712433 s total
PROFILER:               ExCorrFunctional     0.020208 +/-     0.003622 s,  802 calls,     16.206891 s total
PROFILER:                    ExCorrTotal     0.767522 +/-     0.249043 s,  802 calls,    615.552336 s total
PROFILER:                   Idag_DiagV_I    25.547605 +/-     8.380807 s,  477 calls,  12186.207374 s total
PROFILER:                    initWeights     1.750535 +/-     0.000000 s,    1 calls,      1.750535 s total
PROFILER:                    inv(matrix)     0.001947 +/-     0.000850 s,  677 calls,      1.318264 s total
PROFILER:            matrix::diagonalize     0.007237 +/-     0.004621 s, 1182 calls,      8.553560 s total
PROFILER:                    matrix::set     0.000002 +/-     0.000003 s, 73490 calls,      0.143451 s total
PROFILER:            orthoMatrix(matrix)     0.001353 +/-     0.000792 s,  755 calls,      1.021397 s total
PROFILER:     RadialFunctionR::transform     0.014381 +/-     0.101037 s,  151 calls,      2.171532 s total
PROFILER:                    reduceKmesh     0.000000 +/-     0.000000 s,    1 calls,      0.000000 s total
PROFILER:   VanDerWaalsD3::energyAndGrad     0.042726 +/-     0.004234 s,   45 calls,      1.922679 s total
PROFILER:               WavefunctionDrag    26.842320 +/-     0.634401 s,   22 calls,    590.531045 s total
PROFILER:                            Y*M     0.626156 +/-     0.779597 s, 13242 calls,   8291.555214 s total
PROFILER:                          Y1^Y2     0.641122 +/-     0.801121 s, 9838 calls,   6307.361011 s total

MEMUSAGE:                   ColumnBundle     1.365987 GB
MEMUSAGE:        complexScalarFieldTilde     0.049438 GB
MEMUSAGE:                    IndexArrays     0.023178 GB
MEMUSAGE:                         matrix     0.020862 GB
MEMUSAGE:                           misc     0.051230 GB
MEMUSAGE:                    ScalarField     0.395508 GB
MEMUSAGE:               ScalarFieldTilde     0.262436 GB
MEMUSAGE:                          Total     1.683400 GB
