
*************** JDFTx 1.7.0 (git hash 5f12716a) ***************

Start date and time: Tue Nov 22 17:51:32 2022
Executable /home/nisi6161/jdftx_alpine/build/jdftx with command-line: -i in
Running on hosts (process indices):  c3cpu-c11-u3-2.rc.int.colorado.edu (0-17)
Divided in process groups (process indices):  0 (0)  1 (1)  2 (2)  3 (3)  4 (4)  5 (5)  6 (6)  7 (7)  8 (8)  9 (9)  10 (10)  11 (11)  12 (12)  13 (13)  14 (14)  15 (15)  16 (16)  17 (17)
Resource initialization completed at t[s]:      0.02
Run totals: 18 processes, 48 threads, 0 GPUs


Input parsed successfully to the following command list (including defaults):

basis kpoint-dependent
converge-empty-states yes
coords-type Cartesian
core-overlap-check none
coulomb-interaction Periodic
davidson-band-ratio 1.1
density-of-states Etol 1.000000e-06 Esigma 1.000000e-03 \
		Complete \
	Total \
	OrthoOrbital C 1   s \
	OrthoOrbital C 1   p \
	OrthoOrbital C 1   px \
	OrthoOrbital C 1   py \
	OrthoOrbital C 1   pz \
	OrthoOrbital C 2   s \
	OrthoOrbital C 2   p \
	OrthoOrbital C 2   px \
	OrthoOrbital C 2   py \
	OrthoOrbital C 2   pz \
	OrthoOrbital C 3   s \
	OrthoOrbital C 3   p \
	OrthoOrbital C 3   px \
	OrthoOrbital C 3   py \
	OrthoOrbital C 3   pz \
	OrthoOrbital C 4   s \
	OrthoOrbital C 4   p \
	OrthoOrbital C 4   px \
	OrthoOrbital C 4   py \
	OrthoOrbital C 4   pz \
	OrthoOrbital C 5   s \
	OrthoOrbital C 5   p \
	OrthoOrbital C 5   px \
	OrthoOrbital C 5   py \
	OrthoOrbital C 5   pz \
	OrthoOrbital C 6   s \
	OrthoOrbital C 6   p \
	OrthoOrbital C 6   px \
	OrthoOrbital C 6   py \
	OrthoOrbital C 6   pz \
	OrthoOrbital C 7   s \
	OrthoOrbital C 7   p \
	OrthoOrbital C 7   px \
	OrthoOrbital C 7   py \
	OrthoOrbital C 7   pz \
	OrthoOrbital C 8   s \
	OrthoOrbital C 8   p \
	OrthoOrbital C 8   px \
	OrthoOrbital C 8   py \
	OrthoOrbital C 8   pz \
	OrthoOrbital C 9   s \
	OrthoOrbital C 9   p \
	OrthoOrbital C 9   px \
	OrthoOrbital C 9   py \
	OrthoOrbital C 9   pz \
	OrthoOrbital C 10   s \
	OrthoOrbital C 10   p \
	OrthoOrbital C 10   px \
	OrthoOrbital C 10   py \
	OrthoOrbital C 10   pz \
	OrthoOrbital C 11   s \
	OrthoOrbital C 11   p \
	OrthoOrbital C 11   px \
	OrthoOrbital C 11   py \
	OrthoOrbital C 11   pz \
	OrthoOrbital C 12   s \
	OrthoOrbital C 12   p \
	OrthoOrbital C 12   px \
	OrthoOrbital C 12   py \
	OrthoOrbital C 12   pz \
	OrthoOrbital C 13   s \
	OrthoOrbital C 13   p \
	OrthoOrbital C 13   px \
	OrthoOrbital C 13   py \
	OrthoOrbital C 13   pz \
	OrthoOrbital C 14   s \
	OrthoOrbital C 14   p \
	OrthoOrbital C 14   px \
	OrthoOrbital C 14   py \
	OrthoOrbital C 14   pz \
	OrthoOrbital C 15   s \
	OrthoOrbital C 15   p \
	OrthoOrbital C 15   px \
	OrthoOrbital C 15   py \
	OrthoOrbital C 15   pz \
	OrthoOrbital C 16   s \
	OrthoOrbital C 16   p \
	OrthoOrbital C 16   px \
	OrthoOrbital C 16   py \
	OrthoOrbital C 16   pz \
	OrthoOrbital C 17   s \
	OrthoOrbital C 17   p \
	OrthoOrbital C 17   px \
	OrthoOrbital C 17   py \
	OrthoOrbital C 17   pz \
	OrthoOrbital C 18   s \
	OrthoOrbital C 18   p \
	OrthoOrbital C 18   px \
	OrthoOrbital C 18   py \
	OrthoOrbital C 18   pz \
	OrthoOrbital C 19   s \
	OrthoOrbital C 19   p \
	OrthoOrbital C 19   px \
	OrthoOrbital C 19   py \
	OrthoOrbital C 19   pz \
	OrthoOrbital C 20   s \
	OrthoOrbital C 20   p \
	OrthoOrbital C 20   px \
	OrthoOrbital C 20   py \
	OrthoOrbital C 20   pz \
	OrthoOrbital C 21   s \
	OrthoOrbital C 21   p \
	OrthoOrbital C 21   px \
	OrthoOrbital C 21   py \
	OrthoOrbital C 21   pz \
	OrthoOrbital C 22   s \
	OrthoOrbital C 22   p \
	OrthoOrbital C 22   px \
	OrthoOrbital C 22   py \
	OrthoOrbital C 22   pz \
	OrthoOrbital C 23   s \
	OrthoOrbital C 23   p \
	OrthoOrbital C 23   px \
	OrthoOrbital C 23   py \
	OrthoOrbital C 23   pz \
	OrthoOrbital C 24   s \
	OrthoOrbital C 24   p \
	OrthoOrbital C 24   px \
	OrthoOrbital C 24   py \
	OrthoOrbital C 24   pz \
	OrthoOrbital C 25   s \
	OrthoOrbital C 25   p \
	OrthoOrbital C 25   px \
	OrthoOrbital C 25   py \
	OrthoOrbital C 25   pz \
	OrthoOrbital C 26   s \
	OrthoOrbital C 26   p \
	OrthoOrbital C 26   px \
	OrthoOrbital C 26   py \
	OrthoOrbital C 26   pz \
	OrthoOrbital C 27   s \
	OrthoOrbital C 27   p \
	OrthoOrbital C 27   px \
	OrthoOrbital C 27   py \
	OrthoOrbital C 27   pz \
	OrthoOrbital C 28   s \
	OrthoOrbital C 28   p \
	OrthoOrbital C 28   px \
	OrthoOrbital C 28   py \
	OrthoOrbital C 28   pz \
	OrthoOrbital C 29   s \
	OrthoOrbital C 29   p \
	OrthoOrbital C 29   px \
	OrthoOrbital C 29   py \
	OrthoOrbital C 29   pz \
	OrthoOrbital C 30   s \
	OrthoOrbital C 30   p \
	OrthoOrbital C 30   px \
	OrthoOrbital C 30   py \
	OrthoOrbital C 30   pz \
	OrthoOrbital C 31   s \
	OrthoOrbital C 31   p \
	OrthoOrbital C 31   px \
	OrthoOrbital C 31   py \
	OrthoOrbital C 31   pz \
	OrthoOrbital C 32   s \
	OrthoOrbital C 32   p \
	OrthoOrbital C 32   px \
	OrthoOrbital C 32   py \
	OrthoOrbital C 32   pz \
	OrthoOrbital C 33   s \
	OrthoOrbital C 33   p \
	OrthoOrbital C 33   px \
	OrthoOrbital C 33   py \
	OrthoOrbital C 33   pz \
	OrthoOrbital C 34   s \
	OrthoOrbital C 34   p \
	OrthoOrbital C 34   px \
	OrthoOrbital C 34   py \
	OrthoOrbital C 34   pz \
	OrthoOrbital C 35   s \
	OrthoOrbital C 35   p \
	OrthoOrbital C 35   px \
	OrthoOrbital C 35   py \
	OrthoOrbital C 35   pz \
	OrthoOrbital C 36   s \
	OrthoOrbital C 36   p \
	OrthoOrbital C 36   px \
	OrthoOrbital C 36   py \
	OrthoOrbital C 36   pz \
	OrthoOrbital C 37   s \
	OrthoOrbital C 37   p \
	OrthoOrbital C 37   px \
	OrthoOrbital C 37   py \
	OrthoOrbital C 37   pz \
	OrthoOrbital C 38   s \
	OrthoOrbital C 38   p \
	OrthoOrbital C 38   px \
	OrthoOrbital C 38   py \
	OrthoOrbital C 38   pz \
	OrthoOrbital C 39   s \
	OrthoOrbital C 39   p \
	OrthoOrbital C 39   px \
	OrthoOrbital C 39   py \
	OrthoOrbital C 39   pz \
	OrthoOrbital C 40   s \
	OrthoOrbital C 40   p \
	OrthoOrbital C 40   px \
	OrthoOrbital C 40   py \
	OrthoOrbital C 40   pz \
	OrthoOrbital C 41   s \
	OrthoOrbital C 41   p \
	OrthoOrbital C 41   px \
	OrthoOrbital C 41   py \
	OrthoOrbital C 41   pz \
	OrthoOrbital C 42   s \
	OrthoOrbital C 42   p \
	OrthoOrbital C 42   px \
	OrthoOrbital C 42   py \
	OrthoOrbital C 42   pz \
	OrthoOrbital C 43   s \
	OrthoOrbital C 43   p \
	OrthoOrbital C 43   px \
	OrthoOrbital C 43   py \
	OrthoOrbital C 43   pz \
	OrthoOrbital C 44   s \
	OrthoOrbital C 44   p \
	OrthoOrbital C 44   px \
	OrthoOrbital C 44   py \
	OrthoOrbital C 44   pz \
	OrthoOrbital C 45   s \
	OrthoOrbital C 45   p \
	OrthoOrbital C 45   px \
	OrthoOrbital C 45   py \
	OrthoOrbital C 45   pz \
	OrthoOrbital N 1   s \
	OrthoOrbital N 1   p \
	OrthoOrbital N 1   px \
	OrthoOrbital N 1   py \
	OrthoOrbital N 1   pz \
	OrthoOrbital N 2   s \
	OrthoOrbital N 2   p \
	OrthoOrbital N 2   px \
	OrthoOrbital N 2   py \
	OrthoOrbital N 2   pz \
	OrthoOrbital N 3   s \
	OrthoOrbital N 3   p \
	OrthoOrbital N 3   px \
	OrthoOrbital N 3   py \
	OrthoOrbital N 3   pz \
	OrthoOrbital N 4   s \
	OrthoOrbital N 4   p \
	OrthoOrbital N 4   px \
	OrthoOrbital N 4   py \
	OrthoOrbital N 4   pz \
	OrthoOrbital Ti 1   s \
	OrthoOrbital Ti 1   p \
	OrthoOrbital Ti 1   px \
	OrthoOrbital Ti 1   py \
	OrthoOrbital Ti 1   pz \
	OrthoOrbital Ti 1   d \
	OrthoOrbital Ti 1   dxy \
	OrthoOrbital Ti 1   dyz \
	OrthoOrbital Ti 1   dz2 \
	OrthoOrbital Ti 1   dxz \
	OrthoOrbital Ti 1   dx2-y2 \
	OrthoOrbital O 1   s \
	OrthoOrbital O 1   p \
	OrthoOrbital O 1   px \
	OrthoOrbital O 1   py \
	OrthoOrbital O 1   pz \
	OrthoOrbital O 2   s \
	OrthoOrbital O 2   p \
	OrthoOrbital O 2   px \
	OrthoOrbital O 2   py \
	OrthoOrbital O 2   pz \
	OrthoOrbital O 3   s \
	OrthoOrbital O 3   p \
	OrthoOrbital O 3   px \
	OrthoOrbital O 3   py \
	OrthoOrbital O 3   pz \
	OrthoOrbital H 1   s \
	OrthoOrbital H 2   s \
	OrthoOrbital H 3   s \
	OrthoOrbital H 4   s
dump End ElecDensity KEdensity BandEigs EigStats RhoAtom DOS Kpoints
dump Ionic State IonicPositions Lattice EigStats Ecomponents
dump 
dump 
dump 
dump 
dump 
dump 
dump 
dump 
dump-name jdft.$VAR
elec-cutoff 20
elec-eigen-algo Davidson
elec-ex-corr gga-PBE
elec-initial-magnetization 0.000000 no
elec-n-bands 141
elec-smearing Fermi 0.001
electronic-minimize  \
	dirUpdateScheme      FletcherReeves \
	linminMethod         DirUpdateRecommended \
	nIterations          100 \
	history              15 \
	knormThreshold       0 \
	energyDiffThreshold  1e-07 \
	nEnergyDiff          2 \
	alphaTstart          1 \
	alphaTmin            1e-10 \
	updateTestStepSize   yes \
	alphaTreduceFactor   0.1 \
	alphaTincreaseFactor 3 \
	nAlphaAdjustMax      3 \
	wolfeEnergy          0.0001 \
	wolfeGradient        0.9 \
	fdTest               no
exchange-regularization WignerSeitzTruncated
fluid LinearPCM 298.000000 1.013250
fluid-anion F- 0.5 MeanFieldLJ \
	epsBulk 1 \
	pMol 0 \
	epsInf 1 \
	Pvap 0 \
	sigmaBulk 0 \
	Rvdw 2.24877 \
	Res 0 \
	tauNuc 343133
fluid-cation Na+ 0.5 MeanFieldLJ \
	epsBulk 1 \
	pMol 0 \
	epsInf 1 \
	Pvap 0 \
	sigmaBulk 0 \
	Rvdw 2.19208 \
	Res 0 \
	tauNuc 343133
fluid-ex-corr lda-TF lda-PZ
fluid-gummel-loop 10 1.000000e-05
fluid-minimize  \
	dirUpdateScheme      PolakRibiere \
	linminMethod         DirUpdateRecommended \
	nIterations          400 \
	history              15 \
	knormThreshold       1e-11 \
	energyDiffThreshold  0 \
	nEnergyDiff          2 \
	alphaTstart          1 \
	alphaTmin            1e-10 \
	updateTestStepSize   yes \
	alphaTreduceFactor   0.1 \
	alphaTincreaseFactor 3 \
	nAlphaAdjustMax      6 \
	wolfeEnergy          0.0001 \
	wolfeGradient        0.9 \
	fdTest               no
fluid-solvent H2O 55.338 ScalarEOS \
	epsBulk 78.4 \
	pMol 0.92466 \
	epsInf 1.77 \
	Pvap 1.06736e-10 \
	sigmaBulk 4.62e-05 \
	Rvdw 2.61727 \
	Res 1.42 \
	tauNuc 343133 \
	poleEl 15 7 1
forces-output-coords Positions
ion C   0.000858000000000   0.088004000000000   0.037676000000000 0
ion C  21.042811000000004   4.042559000000001   0.062505000000000 0
ion C  18.694477999999997   8.046589000000003   0.000216000000000 0
ion C  -7.046500000000001  12.046085000000001  43.240135000000009 0
ion C  -9.371743000000002  16.058293000000003   0.010598000000000 0
ion C   4.683095000000001   0.183093000000000   0.055844000000000 0
ion C   2.290652000000001   4.206701000000001   0.190674000000000 0
ion C  -0.129709000000001   8.023835999999999   0.205165000000000 0
ion C  -2.428147000000001  12.029620000000001   0.079029000000000 0
ion C  -4.721459000000002  16.058691000000003   0.029501000000000 0
ion C   9.378534999999999   0.069208000000000   0.005667000000000 0
ion C   7.082758000000002   4.165391000000001   0.030193000000000 0
ion C  -0.022498000000001  15.952888000000002   0.094472000000000 0
ion C   2.343153000000001  19.928317000000003   0.025348000000000 0
ion C  11.754956000000002   4.028046000000001  43.229927000000011 0
ion C   9.463841000000002   8.018753000000002  43.252117000000005 0
ion C   4.668796000000000  15.836446000000002   0.129250000000000 0
ion C   6.994999999999996  19.938372000000008   0.024959000000000 0
ion C  16.397690000000004   4.016847000000000  43.247748000000009 0
ion C  14.089431000000001   8.040320000000003  43.232306000000008 0
ion C  11.773346999999998  12.043536000000000   0.007873000000000 0
ion C   9.376474999999999  15.990309999999999   0.009819000000000 0
ion C  -0.015408000000000   2.774095000000000   0.089757000000000 0
ion C  -2.427988000000001   6.697235000000002   0.067869000000000 0
ion C  -4.742627000000001  10.696323000000000   0.003590000000000 0
ion C  -7.047232000000001  14.721395000000003   0.006921000000000 0
ion C  -9.375309000000000  18.747187000000004   0.038758000000000 0
ion C   4.679461000000001   2.900198000000001   0.112120000000000 0
ion C  -0.127902000000002  10.705432000000004   0.220910000000000 0
ion C  -2.400542000000001  14.702278000000003   0.073492000000000 0
ion C  -4.721295000000001  18.744116000000005   0.026430000000000 0
ion C   9.390866000000003   2.749775000000001  43.238015000000004 0
ion C   2.285678999999998  14.523485000000004   0.211610000000000 0
ion C  -0.011098000000000  18.639380000000003   0.029847000000000 0
ion C  14.076608000000002   2.675045000000000  43.245023000000010 0
ion C  11.781317000000001   6.702698000000001  43.239529000000005 0
ion C   9.459468999999999  10.720055000000002   0.027684000000000 0
ion C   7.068716999999999  14.571788000000003   0.076693000000000 0
ion C   4.668956999999999  18.555029000000001   0.053854000000000 0
ion C  18.724543000000004   2.682584000000001   0.019206000000000 0
ion C  16.393877000000000   6.692892000000001  43.231657000000006 0
ion C  14.086265000000001  10.712356000000002  43.238232000000011 0
ion C  11.744702999999999  14.718944000000002   0.005580000000000 0
ion C   9.361513000000000  18.671913000000000   0.016135000000000 0
ion C   4.372988000000001   9.150167000000003   5.574138000000000 1
ion N   2.170125000000001  11.917057000000000   0.428800000000000 0
ion N   7.176043000000002  11.978837000000004   0.139199000000000 0
ion N   2.161992000000000   6.808653000000001   0.376936000000000 0
ion N   7.191344000000001   6.750906000000001   0.036552000000000 0
ion Ti   4.846389000000002   9.332503000000003   1.575827000000000 0
ion O   3.908969000000000  10.924121000000003   7.505576000000000 1
ion O   4.875666000000001   6.992549000000001   6.242881000000001 1
ion O   8.015041999999998  11.942812000000004   9.811051000000003 1
ion H   8.016695000000000  13.650706000000003  10.615835000000002 1
ion H   8.487213000000002  10.661970000000002  11.112806000000003 1
ion H   6.243020000000001  11.538025000000001   9.033346000000002 1
ion H   3.283167000000000  12.534014000000003   6.779043000000001 1
ion-species /projects/musgravc/apps/jdftx-1.6.0/build/pseudopotentials/GBRV_v1.5/$ID_pbe_v1.uspp
ion-species /projects/musgravc/apps/jdftx-1.6.0/build/pseudopotentials/GBRV_v1.5/$ID_pbe_v1.2.uspp
ion-species /projects/musgravc/apps/jdftx-1.6.0/build/pseudopotentials/GBRV_v1.5/$ID_pbe_v1.4.uspp
ion-species /projects/musgravc/apps/jdftx-1.6.0/build/pseudopotentials/GBRV_v1.5/$ID_pbe_v1.5.uspp
ion-width Ecut
ionic-minimize  \
	dirUpdateScheme      L-BFGS \
	linminMethod         DirUpdateRecommended \
	nIterations          0 \
	history              15 \
	knormThreshold       0.0001 \
	energyDiffThreshold  1e-06 \
	nEnergyDiff          2 \
	alphaTstart          1 \
	alphaTmin            1e-10 \
	updateTestStepSize   yes \
	alphaTreduceFactor   0.1 \
	alphaTincreaseFactor 3 \
	nAlphaAdjustMax      3 \
	wolfeEnergy          0.0001 \
	wolfeGradient        0.9 \
	fdTest               no
kpoint   0.000000000000   0.000000000000   0.000000000000  1.00000000000000
kpoint-folding 3 3 1 
latt-move-scale 0 0 0
latt-scale 1 1 1 
lattice  \
	  23.436261999999999  -11.733459000000000    0.000000000000000  \
	   0.017994000000000   19.941849000000001    0.000000000000000  \
	   0.000000000000000    0.000000000000000   43.256312999999999 
lattice-minimize  \
	dirUpdateScheme      L-BFGS \
	linminMethod         DirUpdateRecommended \
	nIterations          0 \
	history              15 \
	knormThreshold       0 \
	energyDiffThreshold  1e-06 \
	nEnergyDiff          2 \
	alphaTstart          1 \
	alphaTmin            1e-10 \
	updateTestStepSize   yes \
	alphaTreduceFactor   0.1 \
	alphaTincreaseFactor 3 \
	nAlphaAdjustMax      3 \
	wolfeEnergy          0.0001 \
	wolfeGradient        0.9 \
	fdTest               no
lcao-params 30 1e-06 0.001
pcm-variant CANDLE
spintype z-spin
subspace-rotation-factor 1 yes
symmetries none
symmetry-threshold 0.0001
target-mu -0.1602 no

van-der-waals D3
vibrations \
	dr 0.01\
	centralDiff no\
	useConstraints yes\
	translationSym yes\
	rotationSym no\
	omegaMin 0.0002\
	T 298\
	omegaResolution 0.0001


Applied RMS atom displacement 0 bohrs to make symmetries exact.
Applied RMS atom displacement 0 bohrs to make symmetries exact.

---------- Initializing the Grid ----------
R = 
[      23.4363     -11.7335            0  ]
[     0.017994      19.9418            0  ]
[            0            0      43.2563  ]
unit cell volume = 20225.5
G =
[   0.267976   0.157673         -0  ]
[ -0.000241801   0.314933          0  ]
[          0         -0   0.145255  ]
Minimum fftbox size, Smin = [  96  96  176  ]
Chosen fftbox size, S = [  96  96  180  ]

---------- Exchange Correlation functional ----------
Initalized PBE GGA exchange.
Initalized PBE GGA correlation.

---------- Setting up pseudopotentials ----------
Width of ionic core gaussian charges (only for fluid interactions / plotting) set to 0.397384

Reading pseudopotential file '/projects/musgravc/apps/jdftx-1.6.0/build/pseudopotentials/GBRV_v1.5/c_pbe_v1.2.uspp':
  Title: C.  Created by USPP 7.3.6 on 3-2-2014
  Reference state energy: -5.406344.  4 valence electrons in orbitals:
    |200>  occupation: 2  eigenvalue: -0.504890
    |210>  occupation: 2  eigenvalue: -0.194356
  lMax: 1  lLocal: 2  QijEcut: 5
  4 projectors sampled on a log grid with 503 points:
    l: 0  eig: -0.504890  rCut: 1.3
    l: 0  eig: 0.000000  rCut: 1.3
    l: 1  eig: -0.194357  rCut: 1.3
    l: 1  eig: 0.000000  rCut: 1.3
  Partial core density with radius 1.1
  Transforming core density to a uniform radial grid of dG=0.02 with 1464 points.
  Transforming local potential to a uniform radial grid of dG=0.02 with 1464 points.
  Transforming nonlocal projectors to a uniform radial grid of dG=0.02 with 432 points.
  Transforming density augmentations to a uniform radial grid of dG=0.02 with 1464 points.
  Transforming atomic orbitals to a uniform radial grid of dG=0.02 with 432 points.
  Core radius for overlap checks: 1.30 bohrs.

Reading pseudopotential file '/projects/musgravc/apps/jdftx-1.6.0/build/pseudopotentials/GBRV_v1.5/n_pbe_v1.2.uspp':
  Title: N.  Created by USPP 7.3.6 on 3-2-2014
  Reference state energy: -9.763716.  5 valence electrons in orbitals:
    |200>  occupation: 2  eigenvalue: -0.681964
    |210>  occupation: 3  eigenvalue: -0.260726
  lMax: 1  lLocal: 2  QijEcut: 6
  4 projectors sampled on a log grid with 491 points:
    l: 0  eig: -0.681964  rCut: 1.15
    l: 0  eig: 0.000000  rCut: 1.15
    l: 1  eig: -0.260729  rCut: 1.2
    l: 1  eig: 0.500000  rCut: 1.2
  Partial core density with radius 0.8
  Transforming core density to a uniform radial grid of dG=0.02 with 1464 points.
  Transforming local potential to a uniform radial grid of dG=0.02 with 1464 points.
  Transforming nonlocal projectors to a uniform radial grid of dG=0.02 with 432 points.
  Transforming density augmentations to a uniform radial grid of dG=0.02 with 1464 points.
  Transforming atomic orbitals to a uniform radial grid of dG=0.02 with 432 points.
  Core radius for overlap checks: 1.20 bohrs.

Reading pseudopotential file '/projects/musgravc/apps/jdftx-1.6.0/build/pseudopotentials/GBRV_v1.5/ti_pbe_v1.4.uspp':
  Title: Ti.  Created by USPP 7.3.6 on 31-3-15
  Reference state energy: -59.020943.  12 valence electrons in orbitals:
    |300>  occupation: 2  eigenvalue: -2.777623
    |310>  occupation: 6  eigenvalue: -1.894596
    |400>  occupation: 2  eigenvalue: -0.438610
    |320>  occupation: 1  eigenvalue: -0.583119
  lMax: 2  lLocal: 3  QijEcut: 6
  6 projectors sampled on a log grid with 597 points:
    l: 0  eig: -2.777624  rCut: 1.8
    l: 0  eig: -0.438611  rCut: 1.8
    l: 1  eig: -1.894596  rCut: 1.8
    l: 1  eig: 0.500000  rCut: 1.8
    l: 2  eig: -0.583118  rCut: 1.8
    l: 2  eig: 0.150000  rCut: 1.8
  Partial core density with radius 0.8
  Transforming core density to a uniform radial grid of dG=0.02 with 1464 points.
  Transforming local potential to a uniform radial grid of dG=0.02 with 1464 points.
  Transforming nonlocal projectors to a uniform radial grid of dG=0.02 with 432 points.
  Transforming density augmentations to a uniform radial grid of dG=0.02 with 1464 points.
  Transforming atomic orbitals to a uniform radial grid of dG=0.02 with 432 points.
  Core radius for overlap checks: 1.80 bohrs.

Reading pseudopotential file '/projects/musgravc/apps/jdftx-1.6.0/build/pseudopotentials/GBRV_v1.5/o_pbe_v1.2.uspp':
  Title: O.  Created by USPP 7.3.6 on 3-2-2014
  Reference state energy: -15.894388.  6 valence electrons in orbitals:
    |200>  occupation: 2  eigenvalue: -0.878823
    |210>  occupation: 4  eigenvalue: -0.332131
  lMax: 2  lLocal: 2  QijEcut: 6
  5 projectors sampled on a log grid with 511 points:
    l: 0  eig: -0.878823  rCut: 1.25
    l: 0  eig: 0.000000  rCut: 1.25
    l: 1  eig: -0.332132  rCut: 1.25
    l: 1  eig: 0.000000  rCut: 1.25
    l: 2  eig: 1.000000  rCut: 1.25
  Partial core density with radius 0.7
  Transforming core density to a uniform radial grid of dG=0.02 with 1464 points.
  Transforming local potential to a uniform radial grid of dG=0.02 with 1464 points.
  Transforming nonlocal projectors to a uniform radial grid of dG=0.02 with 432 points.
  Transforming density augmentations to a uniform radial grid of dG=0.02 with 1464 points.
  Transforming atomic orbitals to a uniform radial grid of dG=0.02 with 432 points.
  Core radius for overlap checks: 1.25 bohrs.

Reading pseudopotential file '/projects/musgravc/apps/jdftx-1.6.0/build/pseudopotentials/GBRV_v1.5/h_pbe_v1.4.uspp':
  Title: H.  Created by USPP 7.3.6 on 2-4-15
  Reference state energy: -0.458849.  1 valence electrons in orbitals:
    |100>  occupation: 1  eigenvalue: -0.238595
  lMax: 0  lLocal: 1  QijEcut: 6
  2 projectors sampled on a log grid with 395 points:
    l: 0  eig: -0.238595  rCut: 1.2
    l: 0  eig: 1.000000  rCut: 1.2
  Transforming local potential to a uniform radial grid of dG=0.02 with 1464 points.
  Transforming nonlocal projectors to a uniform radial grid of dG=0.02 with 432 points.
  Transforming density augmentations to a uniform radial grid of dG=0.02 with 1464 points.
  Transforming atomic orbitals to a uniform radial grid of dG=0.02 with 432 points.
  Core radius for overlap checks: 1.20 bohrs.

Initialized 5 species with 57 total atoms.

Folded 1 k-points by 3x3x1 to 9 k-points.

---------- Setting up k-points, bands, fillings ----------
No reducable k-points. 
Computing the number of bands and number of electrons
Calculating initial fillings.
nElectrons: 234.000000   nBands: 141   nStates: 18

----- Setting up reduced wavefunction bases (one per k-point) -----
average nbasis = 86412.556 , ideal nbasis = 86404.907

----- Initializing Supercell corresponding to k-point mesh -----
Lattice vector linear combinations in supercell:
[   3   0   0  ]
[   0   3   0  ]
[   0   0   1  ]
Supercell lattice vectors:
[  70.3088  -35.2004  0  ]
[  0.053982  59.8255  0  ]
[  0  0  43.2563  ]

Initializing DFT-D3 calculator:
	Parameters set for gga-PBE functional
	s6:  1.000  s_r6:  1.217
	s8:  0.722  s_r8:  1.000
	Per-atom parameters loaded for:
	 C:  sqrtQ[a0]:  3.105  Rcov[a0]:  1.417  CN: [ 0.00 0.99 2.00 3.00 3.98 ]
	 N:  sqrtQ[a0]:  2.712  Rcov[a0]:  1.342  CN: [ 0.00 0.99 2.01 2.99 ]
	Ti:  sqrtQ[a0]:  6.288  Rcov[a0]:  2.305  CN: [ 0.00 1.83 3.87 ]
	 O:  sqrtQ[a0]:  2.594  Rcov[a0]:  1.191  CN: [ 0.00 0.99 1.99 ]
	 H:  sqrtQ[a0]:  2.007  Rcov[a0]:  0.605  CN: [ 0.91 0.00 ]

Initializing DFT-D2 calculator for fluid / solvation:
	 C:  C6:   30.35 Eh-a0^6  R0: 2.744 a0
	 N:  C6:   21.33 Eh-a0^6  R0: 2.640 a0
	Ti:  C6:  187.33 Eh-a0^6  R0: 2.952 a0
	 O:  C6:   12.14 Eh-a0^6  R0: 2.536 a0
	 H:  C6:    2.43 Eh-a0^6  R0: 1.892 a0

---------- Setting up ewald sum ----------
Optimum gaussian width for ewald sums = 5.540693 bohr.
Real space sum over 567 unit cells with max indices [  4  4  3  ]
Reciprocal space sum over 7803 terms with max indices [  8  8  13  ]

Computing DFT-D3 correction:
# coordination-number C 3.301 3.323 3.336 3.332 3.313 3.291 3.325 3.551 3.329 3.313 3.303 3.341 3.301 3.301 3.323 3.713 3.268 3.302 3.320 3.334 3.326 3.304 3.302 3.330 3.335 3.319 3.301 3.270 3.545 3.322 3.302 3.306 3.317 3.301 3.314 3.328 3.708 3.332 3.292 3.314 3.333 3.333 3.322 3.303 2.991
# coordination-number N 3.172 3.182 3.177 3.184
# coordination-number Ti 6.810
# coordination-number O 2.093 1.174 2.947
# coordination-number H 0.988 0.988 1.040 1.003
# diagonal-C6 C 24.27 24.05 23.91 23.95 24.16 24.36 24.03 20.91 23.99 24.15 24.25 23.86 24.27 24.27 24.05 19.21 24.57 24.26 24.08 23.93 24.02 24.24 24.26 23.97 23.91 24.09 24.28 24.55 20.99 24.06 24.26 24.22 24.11 24.27 24.15 24.00 19.25 23.96 24.36 24.15 23.95 23.94 24.06 24.26 25.69
# diagonal-C6 N 15.60 15.60 15.60 15.60
# diagonal-C6 Ti 321.59
# diagonal-C6 O 10.39 12.63 10.37
# diagonal-C6 H 3.10 3.10 3.07 3.09
EvdW_6 =   -0.042950
EvdW_8 =   -0.033186

---------- Allocating electronic variables ----------
Initializing wave functions:  linear combination of atomic orbitals
C pseudo-atom occupations:   s ( 2 )  p ( 2 )
N pseudo-atom occupations:   s ( 2 )  p ( 3 )
Ti pseudo-atom occupations:   s ( 2 0 )  p ( 6 )  d ( 4 )
O pseudo-atom occupations:   s ( 2 )  p ( 4 )
H pseudo-atom occupations:   s ( 1 )
	FillingsUpdate:  mu: -0.160200000  nElectrons: 234.000000  magneticMoment: [ Abs: 0.00466  Tot: +0.00005 ]
LCAOMinimize: Iter:   0  G: -361.6533224058238147  |grad|_K:  8.134e-03  alpha:  1.000e+00
	FillingsUpdate:  mu: -0.160200000  nElectrons: 234.000000  magneticMoment: [ Abs: 0.00456  Tot: +0.00000 ]
LCAOMinimize: Iter:   1  G: -363.3109448899654694  |grad|_K:  1.757e-03  alpha:  2.219e-01  linmin: -9.964e-03  cgtest: -9.872e-01  t[s]:    308.72
LCAOMinimize: 	Wrong curvature in test step, increasing alphaT to 6.655981e-01.
	FillingsUpdate:  mu: -0.160200000  nElectrons: 234.000000  magneticMoment: [ Abs: 0.00464  Tot: -0.00000 ]
LCAOMinimize: Iter:   2  G: -364.7330210078065988  |grad|_K:  1.373e-03  alpha: -9.078e-02  linmin: -1.357e-01  cgtest:  2.801e-01  t[s]:    429.01
	FillingsUpdate:  mu: -0.160200000  nElectrons: 234.000000  magneticMoment: [ Abs: 0.00467  Tot: -0.00000 ]
LCAOMinimize: Iter:   3  G: -364.8884344189806370  |grad|_K:  1.049e-03  alpha:  6.061e-02  linmin: -1.633e-01  cgtest:  7.958e-01  t[s]:    553.46
LCAOMinimize: Encountered beta<0, resetting CG.
LCAOMinimize: 	Predicted alpha/alphaT>3.000000, increasing alphaT to 1.818262e-01.
	FillingsUpdate:  mu: -0.160200000  nElectrons: 234.000000  magneticMoment: [ Abs: 0.00475  Tot: -0.00005 ]
LCAOMinimize: Iter:   4  G: -364.9801094241263968  |grad|_K:  1.000e-03  alpha:  1.781e-01  linmin:  9.118e-02  cgtest: -1.521e-02  t[s]:    708.33
	FillingsUpdate:  mu: -0.160200000  nElectrons: 234.000000  magneticMoment: [ Abs: 0.00475  Tot: -0.00006 ]
LCAOMinimize: Iter:   5  G: -364.9801372262398331  |grad|_K:  1.011e-03  alpha:  2.158e-03  linmin: -1.238e-04  cgtest:  9.976e-01  t[s]:    831.74
LCAOMinimize: 	Predicted alpha/alphaT>3.000000, increasing alphaT to 6.475458e-03.
LCAOMinimize: 	Predicted alpha/alphaT>3.000000, increasing alphaT to 1.942637e-02.
	FillingsUpdate:  mu: -0.160200000  nElectrons: 234.000000  magneticMoment: [ Abs: 0.00475  Tot: -0.00002 ]
LCAOMinimize: Iter:   6  G: -364.9995713816326202  |grad|_K:  2.733e-04  alpha:  3.803e-02  linmin: -8.648e-02  cgtest:  9.483e-01  t[s]:   1018.28
LCAOMinimize: Encountered beta<0, resetting CG.
LCAOMinimize: 	Wrong curvature in test step, increasing alphaT to 1.140840e-01.
	FillingsUpdate:  mu: -0.160200000  nElectrons: 234.000000  magneticMoment: [ Abs: 0.00475  Tot: -0.00002 ]
LCAOMinimize: Iter:   7  G: -365.0025632879585373  |grad|_K:  1.865e-04  alpha: -1.074e-01  linmin: -1.327e-01  cgtest:  9.313e-01  t[s]:   1139.10
LCAOMinimize: Encountered beta<0, resetting CG.
	FillingsUpdate:  mu: -0.160200000  nElectrons: 234.000000  magneticMoment: [ Abs: 0.00480  Tot: -0.00002 ]
LCAOMinimize: Iter:   8  G: -365.0049077536799587  |grad|_K:  1.751e-04  alpha:  2.290e-01  linmin: -3.928e-03  cgtest: -5.816e-03  t[s]:   1263.71
	FillingsUpdate:  mu: -0.160200000  nElectrons: 234.000000  magneticMoment: [ Abs: 0.00486  Tot: -0.00005 ]
LCAOMinimize: Iter:   9  G: -365.0065214939720590  |grad|_K:  7.165e-05  alpha:  9.086e-02  linmin: -6.463e-02  cgtest:  3.541e-01  t[s]:   1387.20
LCAOMinimize: 	Predicted alpha/alphaT>3.000000, increasing alphaT to 2.725888e-01.
	FillingsUpdate:  mu: -0.160200000  nElectrons: 234.000000  magneticMoment: [ Abs: 0.00500  Tot: -0.00010 ]
LCAOMinimize: Iter:  10  G: -365.0076742052313534  |grad|_K:  6.118e-05  alpha:  5.115e-01  linmin:  1.454e-02  cgtest: -2.014e-01  t[s]:   1542.21
	FillingsUpdate:  mu: -0.160200000  nElectrons: 234.000000  magneticMoment: [ Abs: 0.00512  Tot: -0.00013 ]
LCAOMinimize: Iter:  11  G: -365.0081101610068117  |grad|_K:  6.564e-05  alpha:  2.467e-01  linmin:  7.275e-03  cgtest:  6.327e-02  t[s]:   1665.46
	FillingsUpdate:  mu: -0.160200000  nElectrons: 234.000000  magneticMoment: [ Abs: 0.00521  Tot: -0.00018 ]
LCAOMinimize: Iter:  12  G: -365.0083301566789373  |grad|_K:  1.908e-05  alpha:  8.582e-02  linmin:  5.854e-02  cgtest:  3.994e-01  t[s]:   1788.66
LCAOMinimize: Encountered beta<0, resetting CG.
	FillingsUpdate:  mu: -0.160200000  nElectrons: 234.000000  magneticMoment: [ Abs: 0.00528  Tot: -0.00021 ]
LCAOMinimize: Iter:  13  G: -365.0083680469168144  |grad|_K:  1.155e-05  alpha:  1.843e-01  linmin: -9.819e-02  cgtest:  8.229e-01  t[s]:   1912.07
LCAOMinimize: Encountered beta<0, resetting CG.
	FillingsUpdate:  mu: -0.160200000  nElectrons: 234.000000  magneticMoment: [ Abs: 0.00531  Tot: -0.00022 ]
LCAOMinimize: Iter:  14  G: -365.0083702279900990  |grad|_K:  9.715e-06  alpha:  9.875e-02  linmin: -1.285e-01  cgtest:  8.689e-01  t[s]:   2035.49
LCAOMinimize: Encountered beta<0, resetting CG.
	FillingsUpdate:  mu: -0.160200000  nElectrons: 234.000000  magneticMoment: [ Abs: 0.00533  Tot: -0.00022 ]
LCAOMinimize: Iter:  15  G: -365.0083712032976564  |grad|_K:  8.647e-06  alpha:  5.813e-02  linmin: -1.429e-01  cgtest:  9.721e-01  t[s]:   2158.29
LCAOMinimize: Encountered beta<0, resetting CG.
	FillingsUpdate:  mu: -0.160200000  nElectrons: 234.000000  magneticMoment: [ Abs: 0.00534  Tot: -0.00023 ]
LCAOMinimize: Iter:  16  G: -365.0083712607118400  |grad|_K:  8.287e-06  alpha:  2.930e-02  linmin: -1.479e-01  cgtest:  1.001e+00  t[s]:   2281.73
LCAOMinimize: Encountered beta<0, resetting CG.
LCAOMinimize: Converged (|Delta G|<1.000000e-06 for 2 iters).
----- createFluidSolver() ----- (Fluid-side solver setup)
   Initializing fluid molecule 'H2O'
     Initializing site 'O'
       Electron density: proportional to exp(-r/0.36935)*erfc((r-0.51523)/0.36823) with norm 6.826
       Charge density: gaussian nuclear width 0.478731 with net site charge 0.826
       Polarizability: cuspless exponential with width 0.32 and norm 3.73
       Hard sphere radius: 2.57003 bohrs
       Positions in reference frame:
         [ +0.000000 +0.000000 +0.000000 ]
     Initializing site 'H'
       Electron density: proportional to exp(-r/0.34641)*erfc((r-0)/0.390882) with norm 0.587
       Charge density: gaussian nuclear width 0.377945 with net site charge -0.413
       Polarizability: cuspless exponential with width 0.39 and norm 3.3
       Positions in reference frame:
         [ +0.000000 -1.441945 +1.122523 ]
         [ +0.000000 +1.441945 +1.122523 ]
     Net charge: 0   dipole magnitude: 0.927204
     Initializing spherical shell mfKernel with radius 2.61727 Bohr
     deltaS corrections:
       site 'O': -7.54299
       site 'H': -6.83917
   Initializing fluid molecule 'Na+'
     Initializing site 'Na'
       Electron density: proportional to exp(-r/0.19682)*erfc((r-0.71491)/0.41314) with norm 8.1383
       Charge density: gaussian nuclear width 0.365347 with net site charge -1
       Hard sphere radius: 1.86327 bohrs
       Positions in reference frame:
         [ +0.000000 +0.000000 +0.000000 ]
     Net charge: -1   dipole magnitude: 0
     Initializing gaussian mfKernel with width: 1.55004 Bohr
     deltaS corrections:
       site 'Na': -22.3555
   Initializing fluid molecule 'F-'
     Initializing site 'F'
       Electron density: proportional to exp(-r/0.38886)*erfc((r-0)/0.438782) with norm 8
       Charge density: gaussian nuclear width 0.374796 with net site charge 1
       Hard sphere radius: 2.39995 bohrs
       Positions in reference frame:
         [ +0.000000 +0.000000 +0.000000 ]
     Net charge: 1   dipole magnitude: 0
     Initializing gaussian mfKernel with width: 1.59012 Bohr
     deltaS corrections:
       site 'F': -9.04335

Correction to mu due to finite nuclear width = -0.0114793
   Cavity determined by nc: 0.00142 and sigma: 0.707107
   Nonlocal vdW cavity from gaussian model electron density with norm = 8 and sigma = 0.993594 bohr
   Charge asymmetry in cavity with sensitivity pCavity = 36.5 e-bohr/Eh
   Electrostatic cavity expanded by eta = 1.46 bohrs
   Weighted density cavitation model constrained by Nbulk: 0.0049383 bohr^-3, Pvap: 3.14029 kPa, Rvdw: 2.61727 bohr and sigmaBulk: 4.62e-05 Eh/bohr^2 at T: 298 K.
   Weighted density dispersion model using vdW pair potentials with single solvent site with sqrtC6eff: 0.77 SI.
WARNING: Vibrations: switching off translationSym and rotationSym since useConstraints is on.

---- Citations for features of the code used in this run ----

   Software package:
      R. Sundararaman, K. Letchworth-Weaver, K.A. Schwarz, D. Gunceler, Y. Ozhabes and T.A. Arias, 'JDFTx: software for joint density-functional theory', SoftwareX 6, 278 (2017)

   gga-PBE exchange-correlation functional:
      J.P. Perdew, K. Burke and M. Ernzerhof, Phys. Rev. Lett. 77, 3865 (1996)

   Pseudopotentials:
      KF Garrity, JW Bennett, KM Rabe and D Vanderbilt, Comput. Mater. Sci. 81, 446 (2014)

   DFT-D3 dispersion correction:
      S. Grimme, J. Antony, S. Ehrlich and H. Krieg, J. Chem. Phys. 132, 154104 (2010)

   DFT-D2 dispersion correction:
      S. Grimme, J. Comput. Chem. 27, 1787 (2006)

   Charge-asymmetric nonlocally-determined local-electric (CANDLE) solvation model:
      R. Sundararaman and W.A. Goddard III, J. Chem. Phys. 142, 064107 (2015)

   Total energy minimization with Auxiliary Hamiltonian:
      C. Freysoldt, S. Boeck, and J. Neugebauer, Phys. Rev. B 79, 241103(R) (2009)

   Grand-canonical (fixed-potential) DFT:
      R. Sundararaman, W. A. Goddard III and T. A. Arias, J. Chem. Phys. 146, 114104 (2017)

   Linear-tetrahedron sampling for density of states:
      G. Lehmann and M. Taut, Phys. status solidi (b) 54, 469 (1972)

This list may not be complete. Please suggest additional citations or
report any other bugs at https://github.com/shankar1729/jdftx/issues

Initialization completed successfully at t[s]:   2298.47

------ Vibrations::calculate() -------
WARNING: Vibrations module is experimental. Please report bugs!
Compare results with and without symmetries and report discrepancies.
Degrees of freedom: 24 total, 24 symmetry-independent.

Computing DFT-D3 correction:
# coordination-number C 3.301 3.323 3.336 3.332 3.313 3.291 3.325 3.551 3.329 3.313 3.303 3.341 3.301 3.301 3.323 3.713 3.268 3.302 3.320 3.334 3.326 3.304 3.302 3.330 3.335 3.319 3.301 3.270 3.545 3.322 3.302 3.306 3.317 3.301 3.314 3.328 3.708 3.332 3.292 3.314 3.333 3.333 3.322 3.303 2.991
# coordination-number N 3.172 3.182 3.177 3.184
# coordination-number Ti 6.810
# coordination-number O 2.093 1.174 2.947
# coordination-number H 0.988 0.988 1.040 1.003
# diagonal-C6 C 24.27 24.05 23.91 23.95 24.16 24.36 24.03 20.91 23.99 24.15 24.25 23.86 24.27 24.27 24.05 19.21 24.57 24.26 24.08 23.93 24.02 24.24 24.26 23.97 23.91 24.09 24.28 24.55 20.99 24.06 24.26 24.22 24.11 24.27 24.15 24.00 19.25 23.96 24.36 24.15 23.95 23.94 24.06 24.26 25.69
# diagonal-C6 N 15.60 15.60 15.60 15.60
# diagonal-C6 Ti 321.59
# diagonal-C6 O 10.39 12.63 10.37
# diagonal-C6 H 3.10 3.10 3.07 3.09
EvdW_6 =   -0.042950
EvdW_8 =   -0.033186
Fluid solver invoked on fresh (random / LCAO) wavefunctions
Running a vacuum solve first:

-------- Initial electronic minimization -----------
	FillingsUpdate:  mu: -0.129156579  nElectrons: 234.000000  magneticMoment: [ Abs: 0.00534  Tot: -0.00023 ]
ElecMinimize: Iter:   0  G: -365.007656365349305  |grad|_K:  1.424e-04  alpha:  1.000e+00
	FillingsUpdate:  mu: -0.082817797  nElectrons: 234.000000  magneticMoment: [ Abs: 0.00352  Tot: -0.00032 ]
	SubspaceRotationAdjust: set factor to 1
ElecMinimize: Iter:   1  G: -368.009339595498886  |grad|_K:  5.538e-05  alpha:  6.826e-01  linmin:  2.853e-05  t[s]:   2499.13
	FillingsUpdate:  mu: -0.027528002  nElectrons: 234.000000  magneticMoment: [ Abs: 0.00527  Tot: -0.00246 ]
	SubspaceRotationAdjust: set factor to 0.585
ElecMinimize: Iter:   2  G: -368.050495354343695  |grad|_K:  9.305e-05  alpha:  1.018e-01  linmin:  6.100e-03  t[s]:   2621.36
ElecMinimize: 	Bad step direction: g.d > 0.
ElecMinimize: 	Undoing step.
ElecMinimize: 	Step failed: resetting search direction.
	FillingsUpdate:  mu: -0.027528002  nElectrons: 234.000000  magneticMoment: [ Abs: 0.00527  Tot: -0.00246 ]
	SubspaceRotationAdjust: set factor to 0.378
ElecMinimize: Iter:   3  G: -368.050495354343241  |grad|_K:  7.479e-05  alpha:  0.000e+00
	FillingsUpdate:  mu: -0.057733667  nElectrons: 234.000000  magneticMoment: [ Abs: 0.00390  Tot: -0.00084 ]
	SubspaceRotationAdjust: set factor to 0.235
ElecMinimize: Iter:   4  G: -368.130381293618996  |grad|_K:  3.295e-05  alpha:  7.509e-02  linmin: -9.827e-04  t[s]:   2834.64
ElecMinimize: 	Predicted alpha/alphaT>3.000000, increasing alphaT to 2.252843e-01.
	FillingsUpdate:  mu: -0.098570684  nElectrons: 234.000000  magneticMoment: [ Abs: 0.00442  Tot: -0.00347 ]
	SubspaceRotationAdjust: set factor to 0.151
ElecMinimize: Iter:   5  G: -368.271678333933721  |grad|_K:  3.308e-05  alpha:  6.084e-01  linmin:  7.240e-03  t[s]:   2987.94
ElecMinimize: 	Step increased G by 2.174530e-05, reducing alpha to 1.469353e-03.
ElecMinimize: 	Step increased G by 1.527948e-05, reducing alpha to 1.469353e-04.
ElecMinimize: 	Step increased G by 3.794599e-05, reducing alpha to 1.469353e-05.
ElecMinimize: 	Step failed to reduce G after 3 attempts. Quitting step.
ElecMinimize: 	Undoing step.
ElecMinimize: 	Step failed: resetting search direction.
	FillingsUpdate:  mu: -0.098633598  nElectrons: 234.000000  magneticMoment: [ Abs: 0.00442  Tot: -0.00347 ]
	SubspaceRotationAdjust: set factor to 0.133
	SubspaceRotationAdjust: resetting CG because factor has changed by 0.133054
ElecMinimize: 	State modified externally: resetting search direction.
ElecMinimize: Iter:   6  G: -368.271640112847081  |grad|_K:  2.790e-05  alpha:  1.469e-05
	FillingsUpdate:  mu: -0.044615097  nElectrons: 234.000000  magneticMoment: [ Abs: 0.00408  Tot: -0.00207 ]
	SubspaceRotationAdjust: set factor to 0.0695
ElecMinimize: Iter:   7  G: -368.322945572709216  |grad|_K:  1.173e-05  alpha:  3.881e-01  linmin: -3.767e-03  t[s]:   3543.96
	FillingsUpdate:  mu: -0.067040106  nElectrons: 234.000000  magneticMoment: [ Abs: 0.00442  Tot: -0.00357 ]
	SubspaceRotationAdjust: set factor to 0.053
ElecMinimize: Iter:   8  G: -368.344706422167803  |grad|_K:  1.296e-05  alpha:  7.799e-01  linmin:  2.396e-03  t[s]:   3665.36
	FillingsUpdate:  mu: -0.074999198  nElectrons: 234.000000  magneticMoment: [ Abs: 0.00540  Tot: -0.00498 ]
	SubspaceRotationAdjust: set factor to 0.0603
ElecMinimize: Iter:   9  G: -368.353644034713000  |grad|_K:  1.126e-05  alpha:  2.975e-01  linmin: -6.361e-04  t[s]:   3786.66
	FillingsUpdate:  mu: -0.053874130  nElectrons: 234.000000  magneticMoment: [ Abs: 0.00604  Tot: -0.00565 ]
	SubspaceRotationAdjust: set factor to 0.0676
ElecMinimize: Iter:  10  G: -368.361677861235705  |grad|_K:  7.430e-06  alpha:  2.711e-01  linmin:  4.101e-05  t[s]:   3908.24
	FillingsUpdate:  mu: -0.040239836  nElectrons: 234.000000  magneticMoment: [ Abs: 0.00616  Tot: -0.00558 ]
	SubspaceRotationAdjust: set factor to 0.0716
ElecMinimize: Iter:  11  G: -368.365169107892200  |grad|_K:  5.618e-06  alpha:  2.882e-01  linmin: -2.732e-04  t[s]:   4029.98
	FillingsUpdate:  mu: -0.045837124  nElectrons: 234.000000  magneticMoment: [ Abs: 0.00633  Tot: -0.00558 ]
	SubspaceRotationAdjust: set factor to 0.0768
ElecMinimize: Iter:  12  G: -368.367232010811676  |grad|_K:  3.873e-06  alpha:  2.900e-01  linmin: -1.101e-04  t[s]:   4151.26
	FillingsUpdate:  mu: -0.047284975  nElectrons: 234.000000  magneticMoment: [ Abs: 0.00685  Tot: -0.00608 ]
	SubspaceRotationAdjust: set factor to 0.0836
ElecMinimize: Iter:  13  G: -368.368507154740769  |grad|_K:  3.909e-06  alpha:  3.834e-01  linmin: -7.761e-06  t[s]:   4272.75
	FillingsUpdate:  mu: -0.049817652  nElectrons: 234.000000  magneticMoment: [ Abs: 0.00802  Tot: -0.00730 ]
	SubspaceRotationAdjust: set factor to 0.09
ElecMinimize: Iter:  14  G: -368.369876372126782  |grad|_K:  3.419e-06  alpha:  4.078e-01  linmin:  1.128e-05  t[s]:   4394.09
	FillingsUpdate:  mu: -0.046515311  nElectrons: 234.000000  magneticMoment: [ Abs: 0.00910  Tot: -0.00835 ]
	SubspaceRotationAdjust: set factor to 0.104
ElecMinimize: Iter:  15  G: -368.370619545166392  |grad|_K:  2.639e-06  alpha:  2.903e-01  linmin: -2.307e-06  t[s]:   4515.80
	FillingsUpdate:  mu: -0.046098188  nElectrons: 234.000000  magneticMoment: [ Abs: 0.01074  Tot: -0.00993 ]
	SubspaceRotationAdjust: set factor to 0.108
ElecMinimize: Iter:  16  G: -368.371262566529367  |grad|_K:  2.878e-06  alpha:  4.205e-01  linmin:  3.415e-06  t[s]:   4636.97
	FillingsUpdate:  mu: -0.046827558  nElectrons: 234.000000  magneticMoment: [ Abs: 0.01349  Tot: -0.01267 ]
	SubspaceRotationAdjust: set factor to 0.131
ElecMinimize: Iter:  17  G: -368.371895137210288  |grad|_K:  2.359e-06  alpha:  3.479e-01  linmin:  3.411e-06  t[s]:   4758.68
	FillingsUpdate:  mu: -0.048698086  nElectrons: 234.000000  magneticMoment: [ Abs: 0.01679  Tot: -0.01595 ]
	SubspaceRotationAdjust: set factor to 0.129
ElecMinimize: Iter:  18  G: -368.372307835266497  |grad|_K:  2.385e-06  alpha:  3.382e-01  linmin:  9.184e-06  t[s]:   4880.43
	FillingsUpdate:  mu: -0.048497726  nElectrons: 234.000000  magneticMoment: [ Abs: 0.02258  Tot: -0.02160 ]
	SubspaceRotationAdjust: set factor to 0.158
ElecMinimize: Iter:  19  G: -368.372785225961877  |grad|_K:  2.038e-06  alpha:  3.842e-01  linmin:  2.642e-06  t[s]:   5002.16
	FillingsUpdate:  mu: -0.047456831  nElectrons: 234.000000  magneticMoment: [ Abs: 0.02693  Tot: -0.02579 ]
	SubspaceRotationAdjust: set factor to 0.147
ElecMinimize: Iter:  20  G: -368.373013603641482  |grad|_K:  1.563e-06  alpha:  2.509e-01  linmin:  2.629e-07  t[s]:   5123.62
	FillingsUpdate:  mu: -0.047619215  nElectrons: 234.000000  magneticMoment: [ Abs: 0.03598  Tot: -0.03469 ]
	SubspaceRotationAdjust: set factor to 0.175
ElecMinimize: Iter:  21  G: -368.373222720594526  |grad|_K:  1.484e-06  alpha:  3.904e-01  linmin:  4.668e-06  t[s]:   5245.72
	FillingsUpdate:  mu: -0.048608633  nElectrons: 234.000000  magneticMoment: [ Abs: 0.04723  Tot: -0.04582 ]
	SubspaceRotationAdjust: set factor to 0.156
ElecMinimize: Iter:  22  G: -368.373362276046635  |grad|_K:  1.242e-06  alpha:  2.889e-01  linmin:  2.254e-06  t[s]:   5367.34
	FillingsUpdate:  mu: -0.048887076  nElectrons: 234.000000  magneticMoment: [ Abs: 0.06371  Tot: -0.06202 ]
	SubspaceRotationAdjust: set factor to 0.188
ElecMinimize: Iter:  23  G: -368.373475485224674  |grad|_K:  1.007e-06  alpha:  3.345e-01  linmin: -3.343e-06  t[s]:   5489.01
	FillingsUpdate:  mu: -0.048415863  nElectrons: 234.000000  magneticMoment: [ Abs: 0.08432  Tot: -0.08227 ]
	SubspaceRotationAdjust: set factor to 0.182
ElecMinimize: Iter:  24  G: -368.373550537202220  |grad|_K:  9.722e-07  alpha:  3.364e-01  linmin: -1.412e-05  t[s]:   5610.40
	FillingsUpdate:  mu: -0.048253918  nElectrons: 234.000000  magneticMoment: [ Abs: 0.12380  Tot: -0.12141 ]
	SubspaceRotationAdjust: set factor to 0.223
ElecMinimize: Iter:  25  G: -368.373620536877240  |grad|_K:  8.510e-07  alpha:  3.359e-01  linmin:  4.773e-05  t[s]:   5731.84
	FillingsUpdate:  mu: -0.049458786  nElectrons: 234.000000  magneticMoment: [ Abs: 0.23049  Tot: -0.22718 ]
	SubspaceRotationAdjust: set factor to 0.156
ElecMinimize: Iter:  26  G: -368.373708471866962  |grad|_K:  1.859e-06  alpha:  6.474e-01  linmin:  6.126e-04  t[s]:   5853.12
	FillingsUpdate:  mu: -0.049782339  nElectrons: 234.000000  magneticMoment: [ Abs: 0.27216  Tot: -0.26841 ]
	SubspaceRotationAdjust: set factor to 0.129
ElecMinimize: Iter:  27  G: -368.373750944107201  |grad|_K:  1.849e-06  alpha:  4.852e-02  linmin: -8.095e-04  t[s]:   5974.53
ElecMinimize: 	Predicted alpha/alphaT>3.000000, increasing alphaT to 1.455684e-01.
	FillingsUpdate:  mu: -0.050488199  nElectrons: 234.000000  magneticMoment: [ Abs: 0.40437  Tot: -0.39854 ]
	SubspaceRotationAdjust: set factor to 0.143
ElecMinimize: Iter:  28  G: -368.373928698680857  |grad|_K:  2.010e-06  alpha:  1.733e-01  linmin:  2.821e-04  t[s]:   6126.69
	FillingsUpdate:  mu: -0.050813668  nElectrons: 234.000000  magneticMoment: [ Abs: 0.44793  Tot: -0.44100 ]
	SubspaceRotationAdjust: set factor to 0.152
ElecMinimize: Iter:  29  G: -368.373972531093557  |grad|_K:  2.064e-06  alpha:  5.987e-02  linmin:  5.517e-06  t[s]:   6248.67
	FillingsUpdate:  mu: -0.050904885  nElectrons: 234.000000  magneticMoment: [ Abs: 0.48539  Tot: -0.47705 ]
	SubspaceRotationAdjust: set factor to 0.157
ElecMinimize: Iter:  30  G: -368.374027117392927  |grad|_K:  1.936e-06  alpha:  5.865e-02  linmin: -6.726e-05  t[s]:   6370.37
	FillingsUpdate:  mu: -0.050635910  nElectrons: 234.000000  magneticMoment: [ Abs: 0.51268  Tot: -0.50268 ]
	SubspaceRotationAdjust: set factor to 0.172
ElecMinimize: Iter:  31  G: -368.374080275087294  |grad|_K:  1.679e-06  alpha:  6.218e-02  linmin: -1.609e-04  t[s]:   6492.68
	FillingsUpdate:  mu: -0.050178796  nElectrons: 234.000000  magneticMoment: [ Abs: 0.53107  Tot: -0.51921 ]
	SubspaceRotationAdjust: set factor to 0.241
ElecMinimize: Iter:  32  G: -368.374130236357644  |grad|_K:  1.410e-06  alpha:  7.462e-02  linmin: -2.444e-04  t[s]:   6614.21
	FillingsUpdate:  mu: -0.049863503  nElectrons: 234.000000  magneticMoment: [ Abs: 0.54463  Tot: -0.53065 ]
	SubspaceRotationAdjust: set factor to 0.296
ElecMinimize: Iter:  33  G: -368.374176455652275  |grad|_K:  1.342e-06  alpha:  9.626e-02  linmin: -2.269e-04  t[s]:   6735.50
	FillingsUpdate:  mu: -0.049719702  nElectrons: 234.000000  magneticMoment: [ Abs: 0.56643  Tot: -0.54939 ]
	SubspaceRotationAdjust: set factor to 0.304
ElecMinimize: Iter:  34  G: -368.374233748779716  |grad|_K:  1.570e-06  alpha:  1.326e-01  linmin: -1.730e-04  t[s]:   6857.31
	FillingsUpdate:  mu: -0.049974133  nElectrons: 234.000000  magneticMoment: [ Abs: 0.61895  Tot: -0.59717 ]
	SubspaceRotationAdjust: set factor to 0.426
ElecMinimize: Iter:  35  G: -368.374318492732300  |grad|_K:  1.665e-06  alpha:  1.467e-01  linmin: -3.256e-05  t[s]:   6979.27
	FillingsUpdate:  mu: -0.050317521  nElectrons: 234.000000  magneticMoment: [ Abs: 0.69581  Tot: -0.66873 ]
	SubspaceRotationAdjust: set factor to 0.489
ElecMinimize: Iter:  36  G: -368.374407248628245  |grad|_K:  2.019e-06  alpha:  1.432e-01  linmin: -7.348e-06  t[s]:   7100.57
	FillingsUpdate:  mu: -0.049915537  nElectrons: 234.000000  magneticMoment: [ Abs: 0.82352  Tot: -0.78676 ]
	SubspaceRotationAdjust: set factor to 0.612
ElecMinimize: Iter:  37  G: -368.374545400388342  |grad|_K:  2.501e-06  alpha:  1.541e-01  linmin:  2.712e-05  t[s]:   7222.89
	FillingsUpdate:  mu: -0.049292943  nElectrons: 234.000000  magneticMoment: [ Abs: 0.92045  Tot: -0.87501 ]
	SubspaceRotationAdjust: set factor to 0.74
ElecMinimize: Iter:  38  G: -368.374661194358566  |grad|_K:  2.800e-06  alpha:  7.832e-02  linmin: -4.702e-05  t[s]:   7344.18
	FillingsUpdate:  mu: -0.048904883  nElectrons: 234.000000  magneticMoment: [ Abs: 1.03422  Tot: -0.97897 ]
	SubspaceRotationAdjust: set factor to 0.684
ElecMinimize: Iter:  39  G: -368.374788984326301  |grad|_K:  3.739e-06  alpha:  6.938e-02  linmin:  4.538e-05  t[s]:   7465.89
	FillingsUpdate:  mu: -0.048707444  nElectrons: 234.000000  magneticMoment: [ Abs: 1.13279  Tot: -1.06931 ]
	SubspaceRotationAdjust: set factor to 0.68
ElecMinimize: Iter:  40  G: -368.374888434560319  |grad|_K:  3.893e-06  alpha:  3.391e-02  linmin: -2.701e-07  t[s]:   7587.52
	FillingsUpdate:  mu: -0.048689280  nElectrons: 234.000000  magneticMoment: [ Abs: 1.21848  Tot: -1.14669 ]
	SubspaceRotationAdjust: set factor to 0.912
ElecMinimize: Iter:  41  G: -368.374987972458371  |grad|_K:  3.563e-06  alpha:  3.010e-02  linmin: -1.573e-05  t[s]:   7709.04
	FillingsUpdate:  mu: -0.048863591  nElectrons: 234.000000  magneticMoment: [ Abs: 1.28235  Tot: -1.20198 ]
	SubspaceRotationAdjust: set factor to 1.17
	SubspaceRotationAdjust: resetting CG because factor has changed by 8.7926
ElecMinimize: 	State modified externally: resetting search direction.
ElecMinimize: Iter:  42  G: -368.375080395120506  |grad|_K:  3.398e-06  alpha:  3.237e-02
ElecMinimize: 	Predicted alpha/alphaT>3.000000, increasing alphaT to 9.710614e-02.
ElecMinimize: 	Predicted alpha/alphaT>3.000000, increasing alphaT to 2.913184e-01.
	FillingsUpdate:  mu: -0.051603969  nElectrons: 234.000000  magneticMoment: [ Abs: 1.29067  Tot: -1.19948 ]
	SubspaceRotationAdjust: set factor to 0.708
ElecMinimize: Iter:  43  G: -368.375918865857727  |grad|_K:  4.921e-06  alpha:  3.308e-01  linmin:  7.356e-06  t[s]:   8083.66
	FillingsUpdate:  mu: -0.048599054  nElectrons: 234.000000  magneticMoment: [ Abs: 1.39966  Tot: -1.29677 ]
	SubspaceRotationAdjust: set factor to 0.581
ElecMinimize: Iter:  44  G: -368.376828156723093  |grad|_K:  2.138e-06  alpha:  1.908e-01  linmin:  6.279e-05  t[s]:   8205.22
	FillingsUpdate:  mu: -0.049237669  nElectrons: 234.000000  magneticMoment: [ Abs: 1.41246  Tot: -1.29400 ]
	SubspaceRotationAdjust: set factor to 0.449
ElecMinimize: Iter:  45  G: -368.377207769681377  |grad|_K:  1.650e-06  alpha:  3.869e-01  linmin:  1.198e-04  t[s]:   8326.95
	FillingsUpdate:  mu: -0.048714339  nElectrons: 234.000000  magneticMoment: [ Abs: 1.43997  Tot: -1.32185 ]
	SubspaceRotationAdjust: set factor to 0.271
ElecMinimize: Iter:  46  G: -368.377311036131516  |grad|_K:  9.330e-07  alpha:  1.836e-01  linmin:  2.276e-04  t[s]:   8449.64
	FillingsUpdate:  mu: -0.049439064  nElectrons: 234.000000  magneticMoment: [ Abs: 1.42921  Tot: -1.30167 ]
	SubspaceRotationAdjust: set factor to 0.219
ElecMinimize: Iter:  47  G: -368.377381032392407  |grad|_K:  7.788e-07  alpha:  3.793e-01  linmin:  3.607e-04  t[s]:   8570.75
	FillingsUpdate:  mu: -0.048906960  nElectrons: 234.000000  magneticMoment: [ Abs: 1.44508  Tot: -1.30724 ]
	SubspaceRotationAdjust: set factor to 0.286
ElecMinimize: Iter:  48  G: -368.377454065691666  |grad|_K:  5.496e-07  alpha:  5.586e-01  linmin: -5.297e-05  t[s]:   8692.35
	FillingsUpdate:  mu: -0.048471133  nElectrons: 234.000000  magneticMoment: [ Abs: 1.46364  Tot: -1.32160 ]
	SubspaceRotationAdjust: set factor to 0.255
ElecMinimize: Iter:  49  G: -368.377488814028254  |grad|_K:  5.285e-07  alpha:  5.223e-01  linmin: -2.469e-05  t[s]:   8814.17
	FillingsUpdate:  mu: -0.048978091  nElectrons: 234.000000  magneticMoment: [ Abs: 1.46523  Tot: -1.31583 ]
	SubspaceRotationAdjust: set factor to 0.226
ElecMinimize: Iter:  50  G: -368.377522032527736  |grad|_K:  3.921e-07  alpha:  5.406e-01  linmin:  4.965e-06  t[s]:   8935.74
	FillingsUpdate:  mu: -0.048960631  nElectrons: 234.000000  magneticMoment: [ Abs: 1.47081  Tot: -1.31912 ]
	SubspaceRotationAdjust: set factor to 0.234
ElecMinimize: Iter:  51  G: -368.377538930809465  |grad|_K:  3.125e-07  alpha:  5.011e-01  linmin:  5.244e-06  t[s]:   9057.72
	FillingsUpdate:  mu: -0.048781345  nElectrons: 234.000000  magneticMoment: [ Abs: 1.47516  Tot: -1.32233 ]
	SubspaceRotationAdjust: set factor to 0.232
ElecMinimize: Iter:  52  G: -368.377551456851563  |grad|_K:  2.569e-07  alpha:  5.849e-01  linmin:  5.870e-06  t[s]:   9179.34
	FillingsUpdate:  mu: -0.048907388  nElectrons: 234.000000  magneticMoment: [ Abs: 1.47143  Tot: -1.31720 ]
	SubspaceRotationAdjust: set factor to 0.215
ElecMinimize: Iter:  53  G: -368.377559301796794  |grad|_K:  2.054e-07  alpha:  5.424e-01  linmin:  5.200e-06  t[s]:   9300.78
	FillingsUpdate:  mu: -0.048887952  nElectrons: 234.000000  magneticMoment: [ Abs: 1.47119  Tot: -1.31726 ]
	SubspaceRotationAdjust: set factor to 0.231
ElecMinimize: Iter:  54  G: -368.377564060320708  |grad|_K:  1.506e-07  alpha:  5.146e-01  linmin:  3.511e-06  t[s]:   9422.13
	FillingsUpdate:  mu: -0.048862327  nElectrons: 234.000000  magneticMoment: [ Abs: 1.47082  Tot: -1.31748 ]
	SubspaceRotationAdjust: set factor to 0.235
ElecMinimize: Iter:  55  G: -368.377566541492627  |grad|_K:  1.115e-07  alpha:  4.992e-01  linmin:  2.597e-06  t[s]:   9543.69
	FillingsUpdate:  mu: -0.048922142  nElectrons: 234.000000  magneticMoment: [ Abs: 1.46799  Tot: -1.31509 ]
	SubspaceRotationAdjust: set factor to 0.227
ElecMinimize: Iter:  56  G: -368.377568194951436  |grad|_K:  1.004e-07  alpha:  6.070e-01  linmin:  2.538e-06  t[s]:   9665.25
	FillingsUpdate:  mu: -0.048869628  nElectrons: 234.000000  magneticMoment: [ Abs: 1.46721  Tot: -1.31540 ]
	SubspaceRotationAdjust: set factor to 0.231
ElecMinimize: Iter:  57  G: -368.377569445397228  |grad|_K:  8.862e-08  alpha:  5.666e-01  linmin:  1.559e-06  t[s]:   9786.49
	FillingsUpdate:  mu: -0.048816308  nElectrons: 234.000000  magneticMoment: [ Abs: 1.46606  Tot: -1.31534 ]
	SubspaceRotationAdjust: set factor to 0.229
ElecMinimize: Iter:  58  G: -368.377570514977208  |grad|_K:  7.170e-08  alpha:  6.218e-01  linmin:  2.295e-06  t[s]:   9907.86
	FillingsUpdate:  mu: -0.048845098  nElectrons: 234.000000  magneticMoment: [ Abs: 1.46406  Tot: -1.31385 ]
	SubspaceRotationAdjust: set factor to 0.229
ElecMinimize: Iter:  59  G: -368.377571097456041  |grad|_K:  5.582e-08  alpha:  5.175e-01  linmin:  5.525e-07  t[s]:  10029.55
	FillingsUpdate:  mu: -0.048832900  nElectrons: 234.000000  magneticMoment: [ Abs: 1.46345  Tot: -1.31375 ]
	SubspaceRotationAdjust: set factor to 0.215
ElecMinimize: Iter:  60  G: -368.377571431598028  |grad|_K:  4.009e-08  alpha:  4.891e-01  linmin:  4.480e-07  t[s]:  10151.98
	FillingsUpdate:  mu: -0.048814412  nElectrons: 234.000000  magneticMoment: [ Abs: 1.46315  Tot: -1.31368 ]
	SubspaceRotationAdjust: set factor to 0.238
ElecMinimize: Iter:  61  G: -368.377571624276072  |grad|_K:  3.042e-08  alpha:  5.464e-01  linmin: -3.036e-07  t[s]:  10274.33
	FillingsUpdate:  mu: -0.048813520  nElectrons: 234.000000  magneticMoment: [ Abs: 1.46283  Tot: -1.31345 ]
	SubspaceRotationAdjust: set factor to 0.239
ElecMinimize: Iter:  62  G: -368.377571730844750  |grad|_K:  2.486e-08  alpha:  5.245e-01  linmin: -1.361e-07  t[s]:  10397.05
	FillingsUpdate:  mu: -0.048805526  nElectrons: 234.000000  magneticMoment: [ Abs: 1.46291  Tot: -1.31369 ]
	SubspaceRotationAdjust: set factor to 0.244
ElecMinimize: Iter:  63  G: -368.377571805143020  |grad|_K:  1.898e-08  alpha:  5.478e-01  linmin: -2.245e-07  t[s]:  10515.23
	FillingsUpdate:  mu: -0.048804789  nElectrons: 234.000000  magneticMoment: [ Abs: 1.46288  Tot: -1.31373 ]
	SubspaceRotationAdjust: set factor to 0.262
ElecMinimize: Iter:  64  G: -368.377571847960894  |grad|_K:  1.533e-08  alpha:  5.416e-01  linmin:  2.936e-07  t[s]:  10633.73
ElecMinimize: Converged (|Delta G|<1.000000e-07 for 2 iters).
Setting wave functions to eigenvectors of Hamiltonian
Converging empty states (this may take a while): |deigs|: 4.796e-03
Vacuum energy after initial minimize, F = -368.377571847960894

Shifting auxilliary hamiltonian by -0.111395 to set nElectrons=234.000000

-------- Electronic minimization -----------
	Linear fluid (dielectric constant: 78.4, screening length: 8.12261 Bohr) occupying 0.688155 of unit cell:	Completed after 23 iterations at t[s]:  11175.60
	FillingsUpdate:  mu: -0.160200000  nElectrons: 234.000000  magneticMoment: [ Abs: 1.46273  Tot: -1.31356 ]
ElecMinimize: Iter:   0  G: -368.384947106212394  |grad|_K:  4.424e-05  alpha:  1.000e+00
	Linear fluid (dielectric constant: 78.4, screening length: 8.12261 Bohr) occupying 0.698771 of unit cell:	Completed after 21 iterations at t[s]:  11293.91
	Linear fluid (dielectric constant: 78.4, screening length: 8.12261 Bohr) occupying 0.699013 of unit cell:	Completed after 20 iterations at t[s]:  11345.80
	FillingsUpdate:  mu: -0.160200000  nElectrons: 233.349810  magneticMoment: [ Abs: 1.05545  Tot: -0.90303 ]
	SubspaceRotationAdjust: set factor to 0.229
ElecMinimize: Iter:   1  G: -368.448881511086881  |grad|_K:  6.330e-06  alpha:  5.321e-01  linmin: -3.523e-03  t[s]:  11398.72
	Linear fluid (dielectric constant: 78.4, screening length: 8.12261 Bohr) occupying 0.699611 of unit cell:	Completed after 14 iterations at t[s]:  11452.87
	Linear fluid (dielectric constant: 78.4, screening length: 8.12261 Bohr) occupying 0.699919 of unit cell:	Completed after 12 iterations at t[s]:  11498.65
	FillingsUpdate:  mu: -0.160200000  nElectrons: 233.212650  magneticMoment: [ Abs: 0.96878  Tot: -0.77282 ]
	SubspaceRotationAdjust: set factor to 0.19
ElecMinimize: Iter:   2  G: -368.456464356090464  |grad|_K:  7.492e-06  alpha:  8.282e-01  linmin: -3.136e-04  t[s]:  11551.75
	Linear fluid (dielectric constant: 78.4, screening length: 8.12261 Bohr) occupying 0.701256 of unit cell:	Completed after 21 iterations at t[s]:  11610.07
	Linear fluid (dielectric constant: 78.4, screening length: 8.12261 Bohr) occupying 0.700118 of unit cell:	Completed after 20 iterations at t[s]:  11661.20
	FillingsUpdate:  mu: -0.160200000  nElectrons: 233.054653  magneticMoment: [ Abs: 0.85429  Tot: -0.64089 ]
	SubspaceRotationAdjust: set factor to 0.281
ElecMinimize: Iter:   3  G: -368.460385052583433  |grad|_K:  3.758e-06  alpha:  1.767e-01  linmin: -3.280e-03  t[s]:  11715.08
	Linear fluid (dielectric constant: 78.4, screening length: 8.12261 Bohr) occupying 0.700247 of unit cell:	Completed after 15 iterations at t[s]:  11769.53
	Linear fluid (dielectric constant: 78.4, screening length: 8.12261 Bohr) occupying 0.700321 of unit cell:	Completed after 14 iterations at t[s]:  11816.85
	FillingsUpdate:  mu: -0.160200000  nElectrons: 232.901229  magneticMoment: [ Abs: 0.75406  Tot: -0.54639 ]
	SubspaceRotationAdjust: set factor to 0.167
ElecMinimize: Iter:   4  G: -368.461623257506403  |grad|_K:  7.236e-06  alpha:  2.786e-01  linmin:  1.300e-03  t[s]:  11869.53
	Linear fluid (dielectric constant: 78.4, screening length: 8.12261 Bohr) occupying 0.701565 of unit cell:	Completed after 18 iterations at t[s]:  11927.12
	Linear fluid (dielectric constant: 78.4, screening length: 8.12261 Bohr) occupying 0.700515 of unit cell:	Completed after 17 iterations at t[s]:  11976.25
	FillingsUpdate:  mu: -0.160200000  nElectrons: 232.814568  magneticMoment: [ Abs: 0.71875  Tot: -0.52665 ]
	SubspaceRotationAdjust: set factor to 0.108
ElecMinimize: Iter:   5  G: -368.461909279818940  |grad|_K:  7.797e-06  alpha:  4.637e-02  linmin:  1.563e-04  t[s]:  12030.04
	Linear fluid (dielectric constant: 78.4, screening length: 8.12261 Bohr) occupying 0.700795 of unit cell:	Completed after 13 iterations at t[s]:  12083.31
	Linear fluid (dielectric constant: 78.4, screening length: 8.12261 Bohr) occupying 0.701062 of unit cell:	Completed after 12 iterations at t[s]:  12129.49
	FillingsUpdate:  mu: -0.160200000  nElectrons: 232.667246  magneticMoment: [ Abs: 0.70555  Tot: -0.55373 ]
	SubspaceRotationAdjust: set factor to 0.0916
ElecMinimize: Iter:   6  G: -368.463070767281465  |grad|_K:  7.037e-06  alpha:  9.014e-02  linmin: -1.344e-04  t[s]:  12182.22
	Linear fluid (dielectric constant: 78.4, screening length: 8.12261 Bohr) occupying 0.701571 of unit cell:	Completed after 13 iterations at t[s]:  12235.56
	Linear fluid (dielectric constant: 78.4, screening length: 8.12261 Bohr) occupying 0.701637 of unit cell:	Completed after 9 iterations at t[s]:  12279.45
	FillingsUpdate:  mu: -0.160200000  nElectrons: 232.625808  magneticMoment: [ Abs: 0.72779  Tot: -0.59284 ]
	SubspaceRotationAdjust: set factor to 0.123
ElecMinimize: Iter:   7  G: -368.464262172216650  |grad|_K:  4.536e-06  alpha:  1.018e-01  linmin:  1.552e-04  t[s]:  12332.13
	Linear fluid (dielectric constant: 78.4, screening length: 8.12261 Bohr) occupying 0.701898 of unit cell:	Completed after 14 iterations at t[s]:  12386.02
	Linear fluid (dielectric constant: 78.4, screening length: 8.12261 Bohr) occupying 0.701861 of unit cell:	Completed after 7 iterations at t[s]:  12428.43
	FillingsUpdate:  mu: -0.160200000  nElectrons: 232.629332  magneticMoment: [ Abs: 0.74013  Tot: -0.60838 ]
	SubspaceRotationAdjust: set factor to 0.119
ElecMinimize: Iter:   8  G: -368.464613601022677  |grad|_K:  4.245e-06  alpha:  8.753e-02  linmin:  2.103e-05  t[s]:  12481.29
	Linear fluid (dielectric constant: 78.4, screening length: 8.12261 Bohr) occupying 0.702057 of unit cell:	Completed after 12 iterations at t[s]:  12533.50
	Linear fluid (dielectric constant: 78.4, screening length: 8.12261 Bohr) occupying 0.702107 of unit cell:	Completed after 8 iterations at t[s]:  12576.76
	FillingsUpdate:  mu: -0.160200000  nElectrons: 232.623184  magneticMoment: [ Abs: 0.74013  Tot: -0.61034 ]
	SubspaceRotationAdjust: set factor to 0.104
ElecMinimize: Iter:   9  G: -368.465040283903363  |grad|_K:  4.673e-06  alpha:  1.099e-01  linmin:  3.371e-05  t[s]:  12629.57
	Linear fluid (dielectric constant: 78.4, screening length: 8.12261 Bohr) occupying 0.702376 of unit cell:	Completed after 9 iterations at t[s]:  12679.98
	Linear fluid (dielectric constant: 78.4, screening length: 8.12261 Bohr) occupying 0.702343 of unit cell:	Completed after 3 iterations at t[s]:  12720.09
	FillingsUpdate:  mu: -0.160200000  nElectrons: 232.590335  magneticMoment: [ Abs: 0.71332  Tot: -0.58308 ]
	SubspaceRotationAdjust: set factor to 0.0843
ElecMinimize: Iter:  10  G: -368.465494743657871  |grad|_K:  4.019e-06  alpha:  9.635e-02  linmin: -3.214e-06  t[s]:  12772.72
	Linear fluid (dielectric constant: 78.4, screening length: 8.12261 Bohr) occupying 0.702491 of unit cell:	Completed after 14 iterations at t[s]:  12827.02
	Linear fluid (dielectric constant: 78.4, screening length: 8.12261 Bohr) occupying 0.702462 of unit cell:	Completed after 8 iterations at t[s]:  12870.34
	FillingsUpdate:  mu: -0.160200000  nElectrons: 232.551568  magneticMoment: [ Abs: 0.67895  Tot: -0.54671 ]
	SubspaceRotationAdjust: set factor to 0.15
ElecMinimize: Iter:  11  G: -368.465769840292182  |grad|_K:  2.585e-06  alpha:  7.746e-02  linmin:  2.215e-06  t[s]:  12923.06
	Linear fluid (dielectric constant: 78.4, screening length: 8.12261 Bohr) occupying 0.702498 of unit cell:	Completed after 13 iterations at t[s]:  12976.30
	Linear fluid (dielectric constant: 78.4, screening length: 8.12261 Bohr) occupying 0.702503 of unit cell:	Completed after 3 iterations at t[s]:  13016.61
	FillingsUpdate:  mu: -0.160200000  nElectrons: 232.526204  magneticMoment: [ Abs: 0.65572  Tot: -0.52211 ]
	SubspaceRotationAdjust: set factor to 0.154
ElecMinimize: Iter:  12  G: -368.465897239340052  |grad|_K:  2.014e-06  alpha:  8.687e-02  linmin: -1.474e-05  t[s]:  13069.19
	Linear fluid (dielectric constant: 78.4, screening length: 8.12261 Bohr) occupying 0.702519 of unit cell:	Completed after 10 iterations at t[s]:  13120.15
	Linear fluid (dielectric constant: 78.4, screening length: 8.12261 Bohr) occupying 0.702525 of unit cell:	Completed after 7 iterations at t[s]:  13162.72
	FillingsUpdate:  mu: -0.160200000  nElectrons: 232.510059  magneticMoment: [ Abs: 0.63936  Tot: -0.50581 ]
	SubspaceRotationAdjust: set factor to 0.13
ElecMinimize: Iter:  13  G: -368.466004657199505  |grad|_K:  2.403e-06  alpha:  1.195e-01  linmin: -3.301e-05  t[s]:  13215.80
	Linear fluid (dielectric constant: 78.4, screening length: 8.12261 Bohr) occupying 0.702555 of unit cell:	Completed after 7 iterations at t[s]:  13264.90
	Linear fluid (dielectric constant: 78.4, screening length: 8.12261 Bohr) occupying 0.702563 of unit cell:	Completed after 3 iterations at t[s]:  13304.94
	FillingsUpdate:  mu: -0.160200000  nElectrons: 232.512494  magneticMoment: [ Abs: 0.63677  Tot: -0.50657 ]
	SubspaceRotationAdjust: set factor to 0.0873
ElecMinimize: Iter:  14  G: -368.466199555251137  |grad|_K:  2.661e-06  alpha:  1.521e-01  linmin:  1.941e-06  t[s]:  13357.78
	Linear fluid (dielectric constant: 78.4, screening length: 8.12261 Bohr) occupying 0.702606 of unit cell:	Completed after 14 iterations at t[s]:  13411.65
	Linear fluid (dielectric constant: 78.4, screening length: 8.12261 Bohr) occupying 0.702592 of unit cell:	Completed after 10 iterations at t[s]:  13456.34
	FillingsUpdate:  mu: -0.160200000  nElectrons: 232.538463  magneticMoment: [ Abs: 0.65571  Tot: -0.53000 ]
	SubspaceRotationAdjust: set factor to 0.134
ElecMinimize: Iter:  15  G: -368.466356822846762  |grad|_K:  1.739e-06  alpha:  1.006e-01  linmin:  4.979e-06  t[s]:  13509.50
	Linear fluid (dielectric constant: 78.4, screening length: 8.12261 Bohr) occupying 0.702596 of unit cell:	Completed after 12 iterations at t[s]:  13561.99
	Linear fluid (dielectric constant: 78.4, screening length: 8.12261 Bohr) occupying 0.702597 of unit cell:	Completed after 3 iterations at t[s]:  13601.79
	FillingsUpdate:  mu: -0.160200000  nElectrons: 232.560849  magneticMoment: [ Abs: 0.67271  Tot: -0.55025 ]
	SubspaceRotationAdjust: set factor to 0.136
ElecMinimize: Iter:  16  G: -368.466432367056029  |grad|_K:  1.404e-06  alpha:  1.141e-01  linmin:  8.745e-06  t[s]:  13654.50
	Linear fluid (dielectric constant: 78.4, screening length: 8.12261 Bohr) occupying 0.702585 of unit cell:	Completed after 10 iterations at t[s]:  13705.93
	Linear fluid (dielectric constant: 78.4, screening length: 8.12261 Bohr) occupying 0.702580 of unit cell:	Completed after 8 iterations at t[s]:  13748.72
	FillingsUpdate:  mu: -0.160200000  nElectrons: 232.582477  magneticMoment: [ Abs: 0.68658  Tot: -0.56804 ]
	SubspaceRotationAdjust: set factor to 0.109
ElecMinimize: Iter:  17  G: -368.466505606517217  |grad|_K:  1.797e-06  alpha:  1.694e-01  linmin: -1.306e-05  t[s]:  13801.59
	Linear fluid (dielectric constant: 78.4, screening length: 8.12261 Bohr) occupying 0.702519 of unit cell:	Completed after 9 iterations at t[s]:  13852.14
	Linear fluid (dielectric constant: 78.4, screening length: 8.12261 Bohr) occupying 0.702517 of unit cell:	Completed after 0 iterations at t[s]:  13889.44
	FillingsUpdate:  mu: -0.160200000  nElectrons: 232.600714  magneticMoment: [ Abs: 0.68916  Tot: -0.57573 ]
	SubspaceRotationAdjust: set factor to 0.0946
ElecMinimize: Iter:  18  G: -368.466630128200507  |grad|_K:  1.732e-06  alpha:  1.749e-01  linmin: -1.905e-05  t[s]:  13942.34
	Linear fluid (dielectric constant: 78.4, screening length: 8.12261 Bohr) occupying 0.702433 of unit cell:	Completed after 10 iterations at t[s]:  13993.37
	Linear fluid (dielectric constant: 78.4, screening length: 8.12261 Bohr) occupying 0.702458 of unit cell:	Completed after 7 iterations at t[s]:  14036.08
	FillingsUpdate:  mu: -0.160200000  nElectrons: 232.602452  magneticMoment: [ Abs: 0.67812  Tot: -0.56667 ]
	SubspaceRotationAdjust: set factor to 0.134
ElecMinimize: Iter:  19  G: -368.466710489861782  |grad|_K:  1.172e-06  alpha:  1.221e-01  linmin: -2.357e-06  t[s]:  14089.21
	Linear fluid (dielectric constant: 78.4, screening length: 8.12261 Bohr) occupying 0.702424 of unit cell:	Completed after 8 iterations at t[s]:  14138.93
	Linear fluid (dielectric constant: 78.4, screening length: 8.12261 Bohr) occupying 0.702416 of unit cell:	Completed after 3 iterations at t[s]:  14179.27
	FillingsUpdate:  mu: -0.160200000  nElectrons: 232.602597  magneticMoment: [ Abs: 0.66841  Tot: -0.55785 ]
	SubspaceRotationAdjust: set factor to 0.129
ElecMinimize: Iter:  20  G: -368.466755393814196  |grad|_K:  1.125e-06  alpha:  1.485e-01  linmin: -2.972e-05  t[s]:  14232.14
	Linear fluid (dielectric constant: 78.4, screening length: 8.12261 Bohr) occupying 0.702379 of unit cell:	Completed after 7 iterations at t[s]:  14281.08
	Linear fluid (dielectric constant: 78.4, screening length: 8.12261 Bohr) occupying 0.702357 of unit cell:	Completed after 7 iterations at t[s]:  14323.45
	FillingsUpdate:  mu: -0.160200000  nElectrons: 232.621213  magneticMoment: [ Abs: 0.66400  Tot: -0.55515 ]
	SubspaceRotationAdjust: set factor to 0.147
ElecMinimize: Iter:  21  G: -368.466820890583790  |grad|_K:  1.274e-06  alpha:  2.349e-01  linmin:  3.324e-05  t[s]:  14376.28
	Linear fluid (dielectric constant: 78.4, screening length: 8.12261 Bohr) occupying 0.702293 of unit cell:	Completed after 13 iterations at t[s]:  14429.71
	Linear fluid (dielectric constant: 78.4, screening length: 8.12261 Bohr) occupying 0.702321 of unit cell:	Completed after 11 iterations at t[s]:  14474.92
	FillingsUpdate:  mu: -0.160200000  nElectrons: 232.648128  magneticMoment: [ Abs: 0.66802  Tot: -0.55996 ]
	SubspaceRotationAdjust: set factor to 0.166
ElecMinimize: Iter:  22  G: -368.466867590296999  |grad|_K:  9.329e-07  alpha:  1.293e-01  linmin: -2.983e-05  t[s]:  14527.88
	Linear fluid (dielectric constant: 78.4, screening length: 8.12261 Bohr) occupying 0.702302 of unit cell:	Completed after 10 iterations at t[s]:  14578.64
	Linear fluid (dielectric constant: 78.4, screening length: 8.12261 Bohr) occupying 0.702302 of unit cell:	Completed after 0 iterations at t[s]:  14616.04
	FillingsUpdate:  mu: -0.160200000  nElectrons: 232.665800  magneticMoment: [ Abs: 0.67041  Tot: -0.56246 ]
	SubspaceRotationAdjust: set factor to 0.16
ElecMinimize: Iter:  23  G: -368.466892972575636  |grad|_K:  9.046e-07  alpha:  1.314e-01  linmin: -1.322e-05  t[s]:  14668.72
	Linear fluid (dielectric constant: 78.4, screening length: 8.12261 Bohr) occupying 0.702276 of unit cell:	Completed after 7 iterations at t[s]:  14717.89
	Linear fluid (dielectric constant: 78.4, screening length: 8.12261 Bohr) occupying 0.702270 of unit cell:	Completed after 2 iterations at t[s]:  14757.12
	FillingsUpdate:  mu: -0.160200000  nElectrons: 232.676584  magneticMoment: [ Abs: 0.66289  Tot: -0.55428 ]
	SubspaceRotationAdjust: set factor to 0.108
ElecMinimize: Iter:  24  G: -368.466922432542503  |grad|_K:  8.826e-07  alpha:  1.630e-01  linmin: -3.339e-05  t[s]:  14810.55
	Linear fluid (dielectric constant: 78.4, screening length: 8.12261 Bohr) occupying 0.702230 of unit cell:	Completed after 8 iterations at t[s]:  14860.95
	Linear fluid (dielectric constant: 78.4, screening length: 8.12261 Bohr) occupying 0.702244 of unit cell:	Completed after 4 iterations at t[s]:  14901.73
	FillingsUpdate:  mu: -0.160200000  nElectrons: 232.675072  magneticMoment: [ Abs: 0.65069  Tot: -0.54122 ]
	SubspaceRotationAdjust: set factor to 0.173
ElecMinimize: Iter:  25  G: -368.466940825325139  |grad|_K:  5.676e-07  alpha:  1.068e-01  linmin:  1.632e-05  t[s]:  14955.15
	Linear fluid (dielectric constant: 78.4, screening length: 8.12261 Bohr) occupying 0.702232 of unit cell:	Completed after 6 iterations at t[s]:  15004.48
	Linear fluid (dielectric constant: 78.4, screening length: 8.12261 Bohr) occupying 0.702226 of unit cell:	Completed after 4 iterations at t[s]:  15045.31
	FillingsUpdate:  mu: -0.160200000  nElectrons: 232.671568  magneticMoment: [ Abs: 0.64082  Tot: -0.53091 ]
	SubspaceRotationAdjust: set factor to 0.159
ElecMinimize: Iter:  26  G: -368.466952215333833  |grad|_K:  5.695e-07  alpha:  1.625e-01  linmin:  8.055e-06  t[s]:  15098.69
	Linear fluid (dielectric constant: 78.4, screening length: 8.12261 Bohr) occupying 0.702214 of unit cell:	Completed after 3 iterations at t[s]:  15145.36
	Linear fluid (dielectric constant: 78.4, screening length: 8.12261 Bohr) occupying 0.702210 of unit cell:	Completed after 2 iterations at t[s]:  15184.25
	FillingsUpdate:  mu: -0.160200000  nElectrons: 232.673660  magneticMoment: [ Abs: 0.63424  Tot: -0.52425 ]
	SubspaceRotationAdjust: set factor to 0.134
ElecMinimize: Iter:  27  G: -368.466966828798547  |grad|_K:  5.129e-07  alpha:  2.061e-01  linmin:  6.827e-06  t[s]:  15236.68
	Linear fluid (dielectric constant: 78.4, screening length: 8.12261 Bohr) occupying 0.702205 of unit cell:	Completed after 8 iterations at t[s]:  15285.79
	Linear fluid (dielectric constant: 78.4, screening length: 8.12261 Bohr) occupying 0.702207 of unit cell:	Completed after 4 iterations at t[s]:  15325.28
	FillingsUpdate:  mu: -0.160200000  nElectrons: 232.679491  magneticMoment: [ Abs: 0.63509  Tot: -0.52548 ]
	SubspaceRotationAdjust: set factor to 0.152
ElecMinimize: Iter:  28  G: -368.466974477135295  |grad|_K:  3.706e-07  alpha:  1.316e-01  linmin:  1.929e-05  t[s]:  15376.86
	Linear fluid (dielectric constant: 78.4, screening length: 8.12261 Bohr) occupying 0.702205 of unit cell:	Completed after 3 iterations at t[s]:  15422.08
	Linear fluid (dielectric constant: 78.4, screening length: 8.12261 Bohr) occupying 0.702204 of unit cell:	Completed after 3 iterations at t[s]:  15460.35
	FillingsUpdate:  mu: -0.160200000  nElectrons: 232.683800  magneticMoment: [ Abs: 0.63547  Tot: -0.52675 ]
	SubspaceRotationAdjust: set factor to 0.124
ElecMinimize: Iter:  29  G: -368.466981538885022  |grad|_K:  4.388e-07  alpha:  2.390e-01  linmin:  2.591e-05  t[s]:  15510.46
	Linear fluid (dielectric constant: 78.4, screening length: 8.12261 Bohr) occupying 0.702197 of unit cell:	Completed after 4 iterations at t[s]:  15555.49
	Linear fluid (dielectric constant: 78.4, screening length: 8.12261 Bohr) occupying 0.702199 of unit cell:	Completed after 2 iterations at t[s]:  15592.78
	FillingsUpdate:  mu: -0.160200000  nElectrons: 232.681424  magneticMoment: [ Abs: 0.63079  Tot: -0.52316 ]
	SubspaceRotationAdjust: set factor to 0.145
ElecMinimize: Iter:  30  G: -368.466988877516826  |grad|_K:  3.239e-07  alpha:  1.766e-01  linmin:  2.735e-06  t[s]:  15643.75
	Linear fluid (dielectric constant: 78.4, screening length: 8.12261 Bohr) occupying 0.702195 of unit cell:	Completed after 7 iterations at t[s]:  15692.67
	Linear fluid (dielectric constant: 78.4, screening length: 8.12261 Bohr) occupying 0.702195 of unit cell:	Completed after 0 iterations at t[s]:  15730.07
	FillingsUpdate:  mu: -0.160200000  nElectrons: 232.676013  magneticMoment: [ Abs: 0.62529  Tot: -0.51850 ]
	SubspaceRotationAdjust: set factor to 0.145
ElecMinimize: Iter:  31  G: -368.466993188340325  |grad|_K:  3.028e-07  alpha:  1.871e-01  linmin: -4.783e-05  t[s]:  15782.82
	Linear fluid (dielectric constant: 78.4, screening length: 8.12261 Bohr) occupying 0.702195 of unit cell:	Completed after 7 iterations at t[s]:  15831.87
	Linear fluid (dielectric constant: 78.4, screening length: 8.12261 Bohr) occupying 0.702195 of unit cell:	Completed after 2 iterations at t[s]:  15870.86
	FillingsUpdate:  mu: -0.160200000  nElectrons: 232.670513  magneticMoment: [ Abs: 0.62035  Tot: -0.51494 ]
	SubspaceRotationAdjust: set factor to 0.13
ElecMinimize: Iter:  32  G: -368.466998369601470  |grad|_K:  3.086e-07  alpha:  2.417e-01  linmin: -9.001e-05  t[s]:  15923.71
	Linear fluid (dielectric constant: 78.4, screening length: 8.12261 Bohr) occupying 0.702204 of unit cell:	Completed after 3 iterations at t[s]:  15970.18
	Linear fluid (dielectric constant: 78.4, screening length: 8.12261 Bohr) occupying 0.702200 of unit cell:	Completed after 2 iterations at t[s]:  16009.31
	FillingsUpdate:  mu: -0.160200000  nElectrons: 232.669831  magneticMoment: [ Abs: 0.61985  Tot: -0.51563 ]
	SubspaceRotationAdjust: set factor to 0.18
ElecMinimize: Iter:  33  G: -368.467001754740238  |grad|_K:  2.143e-07  alpha:  1.515e-01  linmin:  6.705e-06  t[s]:  16062.36
	Linear fluid (dielectric constant: 78.4, screening length: 8.12261 Bohr) occupying 0.702206 of unit cell:	Completed after 3 iterations at t[s]:  16108.66
	Linear fluid (dielectric constant: 78.4, screening length: 8.12261 Bohr) occupying 0.702210 of unit cell:	Completed after 2 iterations at t[s]:  16147.79
	FillingsUpdate:  mu: -0.160200000  nElectrons: 232.669915  magneticMoment: [ Abs: 0.62025  Tot: -0.51728 ]
	SubspaceRotationAdjust: set factor to 0.174
ElecMinimize: Iter:  34  G: -368.467004338974050  |grad|_K:  2.715e-07  alpha:  2.603e-01  linmin:  9.925e-06  t[s]:  16200.65
	Linear fluid (dielectric constant: 78.4, screening length: 8.12261 Bohr) occupying 0.702225 of unit cell:	Completed after 3 iterations at t[s]:  16247.19
	Linear fluid (dielectric constant: 78.4, screening length: 8.12261 Bohr) occupying 0.702222 of unit cell:	Completed after 2 iterations at t[s]:  16286.23
	FillingsUpdate:  mu: -0.160200000  nElectrons: 232.666116  magneticMoment: [ Abs: 0.61774  Tot: -0.51640 ]
	SubspaceRotationAdjust: set factor to 0.237
ElecMinimize: Iter:  35  G: -368.467007618793218  |grad|_K:  2.024e-07  alpha:  2.058e-01  linmin:  7.245e-06  t[s]:  16339.02
	Linear fluid (dielectric constant: 78.4, screening length: 8.12261 Bohr) occupying 0.702228 of unit cell:	Completed after 3 iterations at t[s]:  16385.55
	Linear fluid (dielectric constant: 78.4, screening length: 8.12261 Bohr) occupying 0.702227 of unit cell:	Completed after 2 iterations at t[s]:  16424.59
	FillingsUpdate:  mu: -0.160200000  nElectrons: 232.663079  magneticMoment: [ Abs: 0.61559  Tot: -0.51496 ]
	SubspaceRotationAdjust: set factor to 0.209
ElecMinimize: Iter:  36  G: -368.467008970571214  |grad|_K:  1.893e-07  alpha:  1.550e-01  linmin:  1.531e-05  t[s]:  16477.27
	Linear fluid (dielectric constant: 78.4, screening length: 8.12261 Bohr) occupying 0.702232 of unit cell:	Completed after 2 iterations at t[s]:  16523.35
	Linear fluid (dielectric constant: 78.4, screening length: 8.12261 Bohr) occupying 0.702235 of unit cell:	Completed after 1 iterations at t[s]:  16561.93
	FillingsUpdate:  mu: -0.160200000  nElectrons: 232.662073  magneticMoment: [ Abs: 0.61540  Tot: -0.51598 ]
	SubspaceRotationAdjust: set factor to 0.289
ElecMinimize: Iter:  37  G: -368.467010870388208  |grad|_K:  1.615e-07  alpha:  2.440e-01  linmin: -1.813e-05  t[s]:  16614.67
	Linear fluid (dielectric constant: 78.4, screening length: 8.12261 Bohr) occupying 0.702242 of unit cell:	Completed after 3 iterations at t[s]:  16660.70
	Linear fluid (dielectric constant: 78.4, screening length: 8.12261 Bohr) occupying 0.702240 of unit cell:	Completed after 2 iterations at t[s]:  16700.24
	FillingsUpdate:  mu: -0.160200000  nElectrons: 232.662869  magneticMoment: [ Abs: 0.61642  Tot: -0.51768 ]
	SubspaceRotationAdjust: set factor to 0.24
ElecMinimize: Iter:  38  G: -368.467011855967883  |grad|_K:  1.659e-07  alpha:  1.717e-01  linmin:  9.949e-06  t[s]:  16752.91
	Linear fluid (dielectric constant: 78.4, screening length: 8.12261 Bohr) occupying 0.702241 of unit cell:	Completed after 2 iterations at t[s]:  16799.38
	Linear fluid (dielectric constant: 78.4, screening length: 8.12261 Bohr) occupying 0.702242 of unit cell:	Completed after 0 iterations at t[s]:  16836.83
	FillingsUpdate:  mu: -0.160200000  nElectrons: 232.660695  magneticMoment: [ Abs: 0.61496  Tot: -0.51696 ]
	SubspaceRotationAdjust: set factor to 0.348
ElecMinimize: Iter:  39  G: -368.467013089501734  |grad|_K:  1.082e-07  alpha:  2.047e-01  linmin: -4.661e-05  t[s]:  16889.54
	Linear fluid (dielectric constant: 78.4, screening length: 8.12261 Bohr) occupying 0.702240 of unit cell:	Completed after 3 iterations at t[s]:  16935.80
	Linear fluid (dielectric constant: 78.4, screening length: 8.12261 Bohr) occupying 0.702241 of unit cell:	Completed after 0 iterations at t[s]:  16973.25
	FillingsUpdate:  mu: -0.160200000  nElectrons: 232.659367  magneticMoment: [ Abs: 0.61378  Tot: -0.51600 ]
	SubspaceRotationAdjust: set factor to 0.24
ElecMinimize: Iter:  40  G: -368.467013510681909  |grad|_K:  1.635e-07  alpha:  1.586e-01  linmin:  5.518e-05  t[s]:  17025.95
	Linear fluid (dielectric constant: 78.4, screening length: 8.12261 Bohr) occupying 0.702240 of unit cell:	Completed after 2 iterations at t[s]:  17071.38
	Linear fluid (dielectric constant: 78.4, screening length: 8.12261 Bohr) occupying 0.702240 of unit cell:	Completed after 1 iterations at t[s]:  17109.95
	FillingsUpdate:  mu: -0.160200000  nElectrons: 232.659815  magneticMoment: [ Abs: 0.61383  Tot: -0.51646 ]
	SubspaceRotationAdjust: set factor to 0.354
ElecMinimize: Iter:  41  G: -368.467014022778585  |grad|_K:  9.445e-08  alpha:  1.009e-01  linmin:  1.620e-06  t[s]:  17163.39
	Linear fluid (dielectric constant: 78.4, screening length: 8.12261 Bohr) occupying 0.702240 of unit cell:	Completed after 0 iterations at t[s]:  17207.62
[...]
disp H   0.006740773592223   0.003502746083581   0.002316582630408
disp H  -0.001965556434856   0.018478906019370  -0.002502773247476
disp H   0.001650434048395   0.000876039186580   0.000972502266361

Real mode 17:
Frequency: 0.011827 Eh [ 2596 cm^-1 ]
Degeneracy: 1 of 1
IR intensity: 17.7100 e^2/amu [ 17265.1 km/mol ]
Displacements:
disp C   0.000000000000000   0.000000000000000   0.000000000000000
disp C   0.000000000000000   0.000000000000000   0.000000000000000
disp C   0.000000000000000   0.000000000000000   0.000000000000000
disp C   0.000000000000000   0.000000000000000   0.000000000000000
disp C   0.000000000000000   0.000000000000000   0.000000000000000
disp C   0.000000000000000   0.000000000000000   0.000000000000000
disp C   0.000000000000000   0.000000000000000   0.000000000000000
disp C   0.000000000000000   0.000000000000000   0.000000000000000
disp C   0.000000000000000   0.000000000000000   0.000000000000000
disp C   0.000000000000000   0.000000000000000   0.000000000000000
disp C   0.000000000000000   0.000000000000000   0.000000000000000
disp C   0.000000000000000   0.000000000000000   0.000000000000000
disp C   0.000000000000000   0.000000000000000   0.000000000000000
disp C   0.000000000000000   0.000000000000000   0.000000000000000
disp C   0.000000000000000   0.000000000000000   0.000000000000000
disp C   0.000000000000000   0.000000000000000   0.000000000000000
disp C   0.000000000000000   0.000000000000000   0.000000000000000
disp C   0.000000000000000   0.000000000000000   0.000000000000000
disp C   0.000000000000000   0.000000000000000   0.000000000000000
disp C   0.000000000000000   0.000000000000000   0.000000000000000
disp C   0.000000000000000   0.000000000000000   0.000000000000000
disp C   0.000000000000000   0.000000000000000   0.000000000000000
disp C   0.000000000000000   0.000000000000000   0.000000000000000
disp C   0.000000000000000   0.000000000000000   0.000000000000000
disp C   0.000000000000000   0.000000000000000   0.000000000000000
disp C   0.000000000000000   0.000000000000000   0.000000000000000
disp C   0.000000000000000   0.000000000000000   0.000000000000000
disp C   0.000000000000000   0.000000000000000   0.000000000000000
disp C   0.000000000000000   0.000000000000000   0.000000000000000
disp C   0.000000000000000   0.000000000000000   0.000000000000000
disp C   0.000000000000000   0.000000000000000   0.000000000000000
disp C   0.000000000000000   0.000000000000000   0.000000000000000
disp C   0.000000000000000   0.000000000000000   0.000000000000000
disp C   0.000000000000000   0.000000000000000   0.000000000000000
disp C   0.000000000000000   0.000000000000000   0.000000000000000
disp C   0.000000000000000   0.000000000000000   0.000000000000000
disp C   0.000000000000000   0.000000000000000   0.000000000000000
disp C   0.000000000000000   0.000000000000000   0.000000000000000
disp C   0.000000000000000   0.000000000000000   0.000000000000000
disp C   0.000000000000000   0.000000000000000   0.000000000000000
disp C   0.000000000000000   0.000000000000000   0.000000000000000
disp C   0.000000000000000   0.000000000000000   0.000000000000000
disp C   0.000000000000000   0.000000000000000   0.000000000000000
disp C   0.000000000000000   0.000000000000000   0.000000000000000
disp C  -0.000100295929153   0.000348478082688   0.000169200106487
disp N   0.000000000000000   0.000000000000000   0.000000000000000
disp N   0.000000000000000   0.000000000000000   0.000000000000000
disp N   0.000000000000000   0.000000000000000   0.000000000000000
disp N   0.000000000000000   0.000000000000000   0.000000000000000
disp Ti   0.000000000000000   0.000000000000000   0.000000000000000
disp O  -0.000057495745787  -0.000224646276592  -0.000200251242716
disp O   0.000026211574622  -0.000114903146938  -0.000011476124307
disp O   0.001411601911652   0.000374009782874   0.000708550360790
disp H  -0.000324262380105   0.000332930894327  -0.000798436526869
disp H   0.000250296863797  -0.000462974009538  -0.000458931321007
disp H  -0.020346136813700  -0.003588616672710  -0.008364824108281
disp H  -0.000100543183184   0.000579921807432  -0.000563380729857

Real mode 18:
Frequency: 0.016057 Eh [ 3524 cm^-1 ]
Degeneracy: 1 of 1
IR intensity: 5.1982 e^2/amu [ 5067.7 km/mol ]
Displacements:
disp C   0.000000000000000   0.000000000000000   0.000000000000000
disp C   0.000000000000000   0.000000000000000   0.000000000000000
disp C   0.000000000000000   0.000000000000000   0.000000000000000
disp C   0.000000000000000   0.000000000000000   0.000000000000000
disp C   0.000000000000000   0.000000000000000   0.000000000000000
disp C   0.000000000000000   0.000000000000000   0.000000000000000
disp C   0.000000000000000   0.000000000000000   0.000000000000000
disp C   0.000000000000000   0.000000000000000   0.000000000000000
disp C   0.000000000000000   0.000000000000000   0.000000000000000
disp C   0.000000000000000   0.000000000000000   0.000000000000000
disp C   0.000000000000000   0.000000000000000   0.000000000000000
disp C   0.000000000000000   0.000000000000000   0.000000000000000
disp C   0.000000000000000   0.000000000000000   0.000000000000000
disp C   0.000000000000000   0.000000000000000   0.000000000000000
disp C   0.000000000000000   0.000000000000000   0.000000000000000
disp C   0.000000000000000   0.000000000000000   0.000000000000000
disp C   0.000000000000000   0.000000000000000   0.000000000000000
disp C   0.000000000000000   0.000000000000000   0.000000000000000
disp C   0.000000000000000   0.000000000000000   0.000000000000000
disp C   0.000000000000000   0.000000000000000   0.000000000000000
disp C   0.000000000000000   0.000000000000000   0.000000000000000
disp C   0.000000000000000   0.000000000000000   0.000000000000000
disp C   0.000000000000000   0.000000000000000   0.000000000000000
disp C   0.000000000000000   0.000000000000000   0.000000000000000
disp C   0.000000000000000   0.000000000000000   0.000000000000000
disp C   0.000000000000000   0.000000000000000   0.000000000000000
disp C   0.000000000000000   0.000000000000000   0.000000000000000
disp C   0.000000000000000   0.000000000000000   0.000000000000000
disp C   0.000000000000000   0.000000000000000   0.000000000000000
disp C   0.000000000000000   0.000000000000000   0.000000000000000
disp C   0.000000000000000   0.000000000000000   0.000000000000000
disp C   0.000000000000000   0.000000000000000   0.000000000000000
disp C   0.000000000000000   0.000000000000000   0.000000000000000
disp C   0.000000000000000   0.000000000000000   0.000000000000000
disp C   0.000000000000000   0.000000000000000   0.000000000000000
disp C   0.000000000000000   0.000000000000000   0.000000000000000
disp C   0.000000000000000   0.000000000000000   0.000000000000000
disp C   0.000000000000000   0.000000000000000   0.000000000000000
disp C   0.000000000000000   0.000000000000000   0.000000000000000
disp C   0.000000000000000   0.000000000000000   0.000000000000000
disp C   0.000000000000000   0.000000000000000   0.000000000000000
disp C   0.000000000000000   0.000000000000000   0.000000000000000
disp C   0.000000000000000   0.000000000000000   0.000000000000000
disp C   0.000000000000000   0.000000000000000   0.000000000000000
disp C   0.000008049258157  -0.000014444776901   0.000014883810295
disp N   0.000000000000000   0.000000000000000   0.000000000000000
disp N   0.000000000000000   0.000000000000000   0.000000000000000
disp N   0.000000000000000   0.000000000000000   0.000000000000000
disp N   0.000000000000000   0.000000000000000   0.000000000000000
disp Ti   0.000000000000000   0.000000000000000   0.000000000000000
disp O   0.000000772859364  -0.000034037389037   0.000004900479063
disp O  -0.000003318738369  -0.000005213962463  -0.000000179604538
disp O  -0.000088789301902   0.001463140844222   0.000400527664178
disp H  -0.000289177350511  -0.020086714515922  -0.009234647361549
disp H   0.000831163213973  -0.002932477021264   0.002958078963898
disp H   0.000432244238471  -0.000055012818346   0.000485561626901
disp H  -0.000252210856571   0.000361756558702  -0.000285002267885

Real mode 19:
Frequency: 0.016187 Eh [ 3553 cm^-1 ]
Degeneracy: 1 of 1
IR intensity: 0.7766 e^2/amu [ 757.1 km/mol ]
Displacements:
disp C   0.000000000000000   0.000000000000000   0.000000000000000
disp C   0.000000000000000   0.000000000000000   0.000000000000000
disp C   0.000000000000000   0.000000000000000   0.000000000000000
disp C   0.000000000000000   0.000000000000000   0.000000000000000
disp C   0.000000000000000   0.000000000000000   0.000000000000000
disp C   0.000000000000000   0.000000000000000   0.000000000000000
disp C   0.000000000000000   0.000000000000000   0.000000000000000
disp C   0.000000000000000   0.000000000000000   0.000000000000000
disp C   0.000000000000000   0.000000000000000   0.000000000000000
disp C   0.000000000000000   0.000000000000000   0.000000000000000
disp C   0.000000000000000   0.000000000000000   0.000000000000000
disp C   0.000000000000000   0.000000000000000   0.000000000000000
disp C   0.000000000000000   0.000000000000000   0.000000000000000
disp C   0.000000000000000   0.000000000000000   0.000000000000000
disp C   0.000000000000000   0.000000000000000   0.000000000000000
disp C   0.000000000000000   0.000000000000000   0.000000000000000
disp C   0.000000000000000   0.000000000000000   0.000000000000000
disp C   0.000000000000000   0.000000000000000   0.000000000000000
disp C   0.000000000000000   0.000000000000000   0.000000000000000
disp C   0.000000000000000   0.000000000000000   0.000000000000000
disp C   0.000000000000000   0.000000000000000   0.000000000000000
disp C   0.000000000000000   0.000000000000000   0.000000000000000
disp C   0.000000000000000   0.000000000000000   0.000000000000000
disp C   0.000000000000000   0.000000000000000   0.000000000000000
disp C   0.000000000000000   0.000000000000000   0.000000000000000
disp C   0.000000000000000   0.000000000000000   0.000000000000000
disp C   0.000000000000000   0.000000000000000   0.000000000000000
disp C   0.000000000000000   0.000000000000000   0.000000000000000
disp C   0.000000000000000   0.000000000000000   0.000000000000000
disp C   0.000000000000000   0.000000000000000   0.000000000000000
disp C   0.000000000000000   0.000000000000000   0.000000000000000
disp C   0.000000000000000   0.000000000000000   0.000000000000000
disp C   0.000000000000000   0.000000000000000   0.000000000000000
disp C   0.000000000000000   0.000000000000000   0.000000000000000
disp C   0.000000000000000   0.000000000000000   0.000000000000000
disp C   0.000000000000000   0.000000000000000   0.000000000000000
disp C   0.000000000000000   0.000000000000000   0.000000000000000
disp C   0.000000000000000   0.000000000000000   0.000000000000000
disp C   0.000000000000000   0.000000000000000   0.000000000000000
disp C   0.000000000000000   0.000000000000000   0.000000000000000
disp C   0.000000000000000   0.000000000000000   0.000000000000000
disp C   0.000000000000000   0.000000000000000   0.000000000000000
disp C   0.000000000000000   0.000000000000000   0.000000000000000
disp C   0.000000000000000   0.000000000000000   0.000000000000000
disp C   0.000008587276060  -0.000017445826503   0.000019492523794
disp N   0.000000000000000   0.000000000000000   0.000000000000000
disp N   0.000000000000000   0.000000000000000   0.000000000000000
disp N   0.000000000000000   0.000000000000000   0.000000000000000
disp N   0.000000000000000   0.000000000000000   0.000000000000000
disp Ti   0.000000000000000   0.000000000000000   0.000000000000000
disp O   0.000003893693010   0.000038598003480   0.000010340429696
disp O   0.000004878756740   0.000011344766835   0.000010956585115
disp O  -0.000350289731359   0.000702718849368  -0.001053045214587
disp H   0.000411357458140   0.004361114084890   0.001711038267090
disp H   0.005906349384147  -0.015277981864069   0.015020318560778
disp H  -0.000470343679452  -0.000152896382053  -0.000528675327880
disp H   0.000275044923880  -0.000326629987186   0.000311548602446

Real mode 20:
Frequency: 0.016776 Eh [ 3682 cm^-1 ]
Degeneracy: 1 of 1
IR intensity: 0.3165 e^2/amu [ 308.6 km/mol ]
Displacements:
disp C   0.000000000000000   0.000000000000000   0.000000000000000
disp C   0.000000000000000   0.000000000000000   0.000000000000000
disp C   0.000000000000000   0.000000000000000   0.000000000000000
disp C   0.000000000000000   0.000000000000000   0.000000000000000
disp C   0.000000000000000   0.000000000000000   0.000000000000000
disp C   0.000000000000000   0.000000000000000   0.000000000000000
disp C   0.000000000000000   0.000000000000000   0.000000000000000
disp C   0.000000000000000   0.000000000000000   0.000000000000000
disp C   0.000000000000000   0.000000000000000   0.000000000000000
disp C   0.000000000000000   0.000000000000000   0.000000000000000
disp C   0.000000000000000   0.000000000000000   0.000000000000000
disp C   0.000000000000000   0.000000000000000   0.000000000000000
disp C   0.000000000000000   0.000000000000000   0.000000000000000
disp C   0.000000000000000   0.000000000000000   0.000000000000000
disp C   0.000000000000000   0.000000000000000   0.000000000000000
disp C   0.000000000000000   0.000000000000000   0.000000000000000
disp C   0.000000000000000   0.000000000000000   0.000000000000000
disp C   0.000000000000000   0.000000000000000   0.000000000000000
disp C   0.000000000000000   0.000000000000000   0.000000000000000
disp C   0.000000000000000   0.000000000000000   0.000000000000000
disp C   0.000000000000000   0.000000000000000   0.000000000000000
disp C   0.000000000000000   0.000000000000000   0.000000000000000
disp C   0.000000000000000   0.000000000000000   0.000000000000000
disp C   0.000000000000000   0.000000000000000   0.000000000000000
disp C   0.000000000000000   0.000000000000000   0.000000000000000
disp C   0.000000000000000   0.000000000000000   0.000000000000000
disp C   0.000000000000000   0.000000000000000   0.000000000000000
disp C   0.000000000000000   0.000000000000000   0.000000000000000
disp C   0.000000000000000   0.000000000000000   0.000000000000000
disp C   0.000000000000000   0.000000000000000   0.000000000000000
disp C   0.000000000000000   0.000000000000000   0.000000000000000
disp C   0.000000000000000   0.000000000000000   0.000000000000000
disp C   0.000000000000000   0.000000000000000   0.000000000000000
disp C   0.000000000000000   0.000000000000000   0.000000000000000
disp C   0.000000000000000   0.000000000000000   0.000000000000000
disp C   0.000000000000000   0.000000000000000   0.000000000000000
disp C   0.000000000000000   0.000000000000000   0.000000000000000
disp C   0.000000000000000   0.000000000000000   0.000000000000000
disp C   0.000000000000000   0.000000000000000   0.000000000000000
disp C   0.000000000000000   0.000000000000000   0.000000000000000
disp C   0.000000000000000   0.000000000000000   0.000000000000000
disp C   0.000000000000000   0.000000000000000   0.000000000000000
disp C   0.000000000000000   0.000000000000000   0.000000000000000
disp C   0.000000000000000   0.000000000000000   0.000000000000000
disp C  -0.000010483293583   0.000041147091278   0.000016203523540
disp N   0.000000000000000   0.000000000000000   0.000000000000000
disp N   0.000000000000000   0.000000000000000   0.000000000000000
disp N   0.000000000000000   0.000000000000000   0.000000000000000
disp N   0.000000000000000   0.000000000000000   0.000000000000000
disp Ti   0.000000000000000   0.000000000000000   0.000000000000000
disp O  -0.000484962377013   0.001244354507062  -0.000557382892896
disp O   0.000005770824035  -0.000026009600587   0.000003483066128
disp O   0.000036224205792   0.000021872999427   0.000048055543344
disp H  -0.000074993381010  -0.000546457189670  -0.000275158695955
disp H  -0.000137186127992   0.000212541356426  -0.000310172112605
disp H  -0.000661708628341  -0.000149648419614  -0.000408727692611
disp H   0.007548405003908  -0.019274508034319   0.009014517253813

Vibrational free energy components at T = 298 K:
	ZPE:          0.057063
	Evib:         0.060971
	TSvib:        0.006712
	Avib:         0.054259


Dumping 'jdft.n_up' ... done
Dumping 'jdft.n_dn' ... done
Dumping 'jdft.tau_up' ... done
Dumping 'jdft.tau_dn' ... done
Dumping 'jdft.eigenvals' ... done
Dumping 'jdft.eigStats' ... 
	eMin: -2.295649 at state 16 ( [ -0.333333 +0.333333 +0.000000 ] spin -1 )
	HOMO: -0.160529 at state 16 ( [ -0.333333 +0.333333 +0.000000 ] spin -1 )
	mu  : -0.160200
	LUMO: -0.159875 at state 15 ( [ -0.333333 +0.000000 +0.000000 ] spin -1 )
	eMax: +0.017266 at state 4 ( [ +0.333333 +0.333333 +0.000000 ] spin 1 )
	HOMO-LUMO gap: +0.000654
	Optical gap  : +0.008902 at state 13 ( [ +0.333333 +0.333333 +0.000000 ] spin -1 )
Dumping 'jdft.kPts' ... done
Dumping 'jdft.dosUp' ... done.
Dumping 'jdft.dosDn' ... done.
End date and time: Wed Nov 23 09:45:56 2022  (Duration: 0-15:54:23.76)
Done!

PROFILER:             augmentDensityGrid     0.740550 +/-     0.961771 s, 3955 calls,   2928.875583 s total
PROFILER:         augmentDensityGridGrad     0.470195 +/-     0.573397 s, 2165 calls,   1017.973252 s total
PROFILER:        augmentDensitySpherical     0.000372 +/-     0.000509 s, 3955 calls,      1.472336 s total
PROFILER:    augmentDensitySphericalGrad     0.000383 +/-     0.000550 s, 2835 calls,      1.085611 s total
PROFILER:                 augmentOverlap     1.374980 +/-     1.988064 s, 8775 calls,  12065.450743 s total
PROFILER:        ColumnBundle::randomize     0.005534 +/-     0.000000 s,    1 calls,      0.005534 s total
PROFILER:                     diagouterI    14.932017 +/-     2.287207 s,  794 calls,  11856.021862 s total
PROFILER:              EdensityAndVscloc     7.269367 +/-     4.160908 s,  792 calls,   5757.338499 s total
PROFILER:                     EnlAndGrad     0.001222 +/-     0.001832 s, 4570 calls,      5.584742 s total
PROFILER:            ExCorrCommunication     0.088637 +/-     0.150992 s, 5029 calls,    445.753055 s total
PROFILER:               ExCorrFunctional     0.024378 +/-     0.005046 s,  868 calls,     21.160532 s total
PROFILER:                    ExCorrTotal     0.759324 +/-     0.244914 s,  868 calls,    659.093212 s total
PROFILER:                   Idag_DiagV_I    25.413945 +/-     9.631861 s,  542 calls,  13774.358459 s total
PROFILER:                    initWeights     1.965250 +/-     0.000000 s,    1 calls,      1.965250 s total
PROFILER:                    inv(matrix)     0.002045 +/-     0.000835 s,  751 calls,      1.535618 s total
PROFILER:            matrix::diagonalize     0.007320 +/-     0.004539 s, 1305 calls,      9.552511 s total
PROFILER:                    matrix::set     0.000002 +/-     0.000005 s, 85363 calls,      0.164512 s total
PROFILER:            orthoMatrix(matrix)     0.001438 +/-     0.000781 s,  861 calls,      1.238442 s total
PROFILER:     RadialFunctionR::transform     0.005352 +/-     0.035843 s,  151 calls,      0.808202 s total
PROFILER:                    reduceKmesh     0.000000 +/-     0.000000 s,    1 calls,      0.000000 s total
PROFILER:   VanDerWaalsD3::energyAndGrad     0.039341 +/-     0.004631 s,   51 calls,      2.006392 s total
PROFILER:               WavefunctionDrag    26.857171 +/-     0.830127 s,   25 calls,    671.429269 s total
PROFILER:                            Y*M     0.626650 +/-     0.786084 s, 15026 calls,   9416.041177 s total
PROFILER:                          Y1^Y2     0.644010 +/-     0.808548 s, 11197 calls,   7210.983896 s total

MEMUSAGE:                   ColumnBundle     1.372431 GB
MEMUSAGE:        complexScalarFieldTilde     0.049438 GB
MEMUSAGE:                    IndexArrays     0.023178 GB
MEMUSAGE:                         matrix     0.020883 GB
MEMUSAGE:                           misc     0.051230 GB
MEMUSAGE:                    ScalarField     0.395508 GB
MEMUSAGE:               ScalarFieldTilde     0.262436 GB
MEMUSAGE:                          Total     1.689912 GB
