
*************** JDFTx 1.7.0 (git hash 5f12716a) ***************

Start date and time: Wed Nov  9 13:08:52 2022
Executable /home/nisi6161/jdftx_alpine/build/jdftx with command-line: -i in
Running on hosts (process indices):  c3cpu-c11-u3-1.rc.int.colorado.edu (0-17)
Divided in process groups (process indices):  0 (0)  1 (1)  2 (2)  3 (3)  4 (4)  5 (5)  6 (6)  7 (7)  8 (8)  9 (9)  10 (10)  11 (11)  12 (12)  13 (13)  14 (14)  15 (15)  16 (16)  17 (17)
Resource initialization completed at t[s]:      0.04
Run totals: 18 processes, 48 threads, 0 GPUs


Input parsed successfully to the following command list (including defaults):

basis kpoint-dependent
converge-empty-states yes
coords-type Cartesian
core-overlap-check none
coulomb-interaction Periodic
davidson-band-ratio 1.1
density-of-states Etol 1.000000e-06 Esigma 1.000000e-03 \
		Complete \
	Total \
	OrthoOrbital C 1   s \
	OrthoOrbital C 1   p \
	OrthoOrbital C 1   px \
	OrthoOrbital C 1   py \
	OrthoOrbital C 1   pz \
	OrthoOrbital C 2   s \
	OrthoOrbital C 2   p \
	OrthoOrbital C 2   px \
	OrthoOrbital C 2   py \
	OrthoOrbital C 2   pz \
	OrthoOrbital C 3   s \
	OrthoOrbital C 3   p \
	OrthoOrbital C 3   px \
	OrthoOrbital C 3   py \
	OrthoOrbital C 3   pz \
	OrthoOrbital C 4   s \
	OrthoOrbital C 4   p \
	OrthoOrbital C 4   px \
	OrthoOrbital C 4   py \
	OrthoOrbital C 4   pz \
	OrthoOrbital C 5   s \
	OrthoOrbital C 5   p \
	OrthoOrbital C 5   px \
	OrthoOrbital C 5   py \
	OrthoOrbital C 5   pz \
	OrthoOrbital C 6   s \
	OrthoOrbital C 6   p \
	OrthoOrbital C 6   px \
	OrthoOrbital C 6   py \
	OrthoOrbital C 6   pz \
	OrthoOrbital C 7   s \
	OrthoOrbital C 7   p \
	OrthoOrbital C 7   px \
	OrthoOrbital C 7   py \
	OrthoOrbital C 7   pz \
	OrthoOrbital C 8   s \
	OrthoOrbital C 8   p \
	OrthoOrbital C 8   px \
	OrthoOrbital C 8   py \
	OrthoOrbital C 8   pz \
	OrthoOrbital C 9   s \
	OrthoOrbital C 9   p \
	OrthoOrbital C 9   px \
	OrthoOrbital C 9   py \
	OrthoOrbital C 9   pz \
	OrthoOrbital C 10   s \
	OrthoOrbital C 10   p \
	OrthoOrbital C 10   px \
	OrthoOrbital C 10   py \
	OrthoOrbital C 10   pz \
	OrthoOrbital C 11   s \
	OrthoOrbital C 11   p \
	OrthoOrbital C 11   px \
	OrthoOrbital C 11   py \
	OrthoOrbital C 11   pz \
	OrthoOrbital C 12   s \
	OrthoOrbital C 12   p \
	OrthoOrbital C 12   px \
	OrthoOrbital C 12   py \
	OrthoOrbital C 12   pz \
	OrthoOrbital C 13   s \
	OrthoOrbital C 13   p \
	OrthoOrbital C 13   px \
	OrthoOrbital C 13   py \
	OrthoOrbital C 13   pz \
	OrthoOrbital C 14   s \
	OrthoOrbital C 14   p \
	OrthoOrbital C 14   px \
	OrthoOrbital C 14   py \
	OrthoOrbital C 14   pz \
	OrthoOrbital C 15   s \
	OrthoOrbital C 15   p \
	OrthoOrbital C 15   px \
	OrthoOrbital C 15   py \
	OrthoOrbital C 15   pz \
	OrthoOrbital C 16   s \
	OrthoOrbital C 16   p \
	OrthoOrbital C 16   px \
	OrthoOrbital C 16   py \
	OrthoOrbital C 16   pz \
	OrthoOrbital C 17   s \
	OrthoOrbital C 17   p \
	OrthoOrbital C 17   px \
	OrthoOrbital C 17   py \
	OrthoOrbital C 17   pz \
	OrthoOrbital C 18   s \
	OrthoOrbital C 18   p \
	OrthoOrbital C 18   px \
	OrthoOrbital C 18   py \
	OrthoOrbital C 18   pz \
	OrthoOrbital C 19   s \
	OrthoOrbital C 19   p \
	OrthoOrbital C 19   px \
	OrthoOrbital C 19   py \
	OrthoOrbital C 19   pz \
	OrthoOrbital C 20   s \
	OrthoOrbital C 20   p \
	OrthoOrbital C 20   px \
	OrthoOrbital C 20   py \
	OrthoOrbital C 20   pz \
	OrthoOrbital C 21   s \
	OrthoOrbital C 21   p \
	OrthoOrbital C 21   px \
	OrthoOrbital C 21   py \
	OrthoOrbital C 21   pz \
	OrthoOrbital C 22   s \
	OrthoOrbital C 22   p \
	OrthoOrbital C 22   px \
	OrthoOrbital C 22   py \
	OrthoOrbital C 22   pz \
	OrthoOrbital C 23   s \
	OrthoOrbital C 23   p \
	OrthoOrbital C 23   px \
	OrthoOrbital C 23   py \
	OrthoOrbital C 23   pz \
	OrthoOrbital C 24   s \
	OrthoOrbital C 24   p \
	OrthoOrbital C 24   px \
	OrthoOrbital C 24   py \
	OrthoOrbital C 24   pz \
	OrthoOrbital C 25   s \
	OrthoOrbital C 25   p \
	OrthoOrbital C 25   px \
	OrthoOrbital C 25   py \
	OrthoOrbital C 25   pz \
	OrthoOrbital C 26   s \
	OrthoOrbital C 26   p \
	OrthoOrbital C 26   px \
	OrthoOrbital C 26   py \
	OrthoOrbital C 26   pz \
	OrthoOrbital C 27   s \
	OrthoOrbital C 27   p \
	OrthoOrbital C 27   px \
	OrthoOrbital C 27   py \
	OrthoOrbital C 27   pz \
	OrthoOrbital C 28   s \
	OrthoOrbital C 28   p \
	OrthoOrbital C 28   px \
	OrthoOrbital C 28   py \
	OrthoOrbital C 28   pz \
	OrthoOrbital C 29   s \
	OrthoOrbital C 29   p \
	OrthoOrbital C 29   px \
	OrthoOrbital C 29   py \
	OrthoOrbital C 29   pz \
	OrthoOrbital C 30   s \
	OrthoOrbital C 30   p \
	OrthoOrbital C 30   px \
	OrthoOrbital C 30   py \
	OrthoOrbital C 30   pz \
	OrthoOrbital C 31   s \
	OrthoOrbital C 31   p \
	OrthoOrbital C 31   px \
	OrthoOrbital C 31   py \
	OrthoOrbital C 31   pz \
	OrthoOrbital C 32   s \
	OrthoOrbital C 32   p \
	OrthoOrbital C 32   px \
	OrthoOrbital C 32   py \
	OrthoOrbital C 32   pz \
	OrthoOrbital C 33   s \
	OrthoOrbital C 33   p \
	OrthoOrbital C 33   px \
	OrthoOrbital C 33   py \
	OrthoOrbital C 33   pz \
	OrthoOrbital C 34   s \
	OrthoOrbital C 34   p \
	OrthoOrbital C 34   px \
	OrthoOrbital C 34   py \
	OrthoOrbital C 34   pz \
	OrthoOrbital C 35   s \
	OrthoOrbital C 35   p \
	OrthoOrbital C 35   px \
	OrthoOrbital C 35   py \
	OrthoOrbital C 35   pz \
	OrthoOrbital C 36   s \
	OrthoOrbital C 36   p \
	OrthoOrbital C 36   px \
	OrthoOrbital C 36   py \
	OrthoOrbital C 36   pz \
	OrthoOrbital C 37   s \
	OrthoOrbital C 37   p \
	OrthoOrbital C 37   px \
	OrthoOrbital C 37   py \
	OrthoOrbital C 37   pz \
	OrthoOrbital C 38   s \
	OrthoOrbital C 38   p \
	OrthoOrbital C 38   px \
	OrthoOrbital C 38   py \
	OrthoOrbital C 38   pz \
	OrthoOrbital C 39   s \
	OrthoOrbital C 39   p \
	OrthoOrbital C 39   px \
	OrthoOrbital C 39   py \
	OrthoOrbital C 39   pz \
	OrthoOrbital C 40   s \
	OrthoOrbital C 40   p \
	OrthoOrbital C 40   px \
	OrthoOrbital C 40   py \
	OrthoOrbital C 40   pz \
	OrthoOrbital C 41   s \
	OrthoOrbital C 41   p \
	OrthoOrbital C 41   px \
	OrthoOrbital C 41   py \
	OrthoOrbital C 41   pz \
	OrthoOrbital C 42   s \
	OrthoOrbital C 42   p \
	OrthoOrbital C 42   px \
	OrthoOrbital C 42   py \
	OrthoOrbital C 42   pz \
	OrthoOrbital C 43   s \
	OrthoOrbital C 43   p \
	OrthoOrbital C 43   px \
	OrthoOrbital C 43   py \
	OrthoOrbital C 43   pz \
	OrthoOrbital C 44   s \
	OrthoOrbital C 44   p \
	OrthoOrbital C 44   px \
	OrthoOrbital C 44   py \
	OrthoOrbital C 44   pz \
	OrthoOrbital C 45   s \
	OrthoOrbital C 45   p \
	OrthoOrbital C 45   px \
	OrthoOrbital C 45   py \
	OrthoOrbital C 45   pz \
	OrthoOrbital N 1   s \
	OrthoOrbital N 1   p \
	OrthoOrbital N 1   px \
	OrthoOrbital N 1   py \
	OrthoOrbital N 1   pz \
	OrthoOrbital N 2   s \
	OrthoOrbital N 2   p \
	OrthoOrbital N 2   px \
	OrthoOrbital N 2   py \
	OrthoOrbital N 2   pz \
	OrthoOrbital N 3   s \
	OrthoOrbital N 3   p \
	OrthoOrbital N 3   px \
	OrthoOrbital N 3   py \
	OrthoOrbital N 3   pz \
	OrthoOrbital N 4   s \
	OrthoOrbital N 4   p \
	OrthoOrbital N 4   px \
	OrthoOrbital N 4   py \
	OrthoOrbital N 4   pz \
	OrthoOrbital Ti 1   s \
	OrthoOrbital Ti 1   p \
	OrthoOrbital Ti 1   px \
	OrthoOrbital Ti 1   py \
	OrthoOrbital Ti 1   pz \
	OrthoOrbital Ti 1   d \
	OrthoOrbital Ti 1   dxy \
	OrthoOrbital Ti 1   dyz \
	OrthoOrbital Ti 1   dz2 \
	OrthoOrbital Ti 1   dxz \
	OrthoOrbital Ti 1   dx2-y2 \
	OrthoOrbital O 1   s \
	OrthoOrbital O 1   p \
	OrthoOrbital O 1   px \
	OrthoOrbital O 1   py \
	OrthoOrbital O 1   pz \
	OrthoOrbital O 2   s \
	OrthoOrbital O 2   p \
	OrthoOrbital O 2   px \
	OrthoOrbital O 2   py \
	OrthoOrbital O 2   pz \
	OrthoOrbital H 1   s \
	OrthoOrbital H 2   s
dump End ElecDensity KEdensity BandEigs EigStats RhoAtom DOS Kpoints
dump Ionic State IonicPositions Lattice EigStats Ecomponents
dump 
dump 
dump 
dump 
dump 
dump 
dump 
dump 
dump-name jdft.$VAR
elec-cutoff 20
elec-eigen-algo Davidson
elec-ex-corr gga-PBE
elec-initial-magnetization 0.000000 no
elec-n-bands 136
elec-smearing Fermi 0.001
electronic-minimize  \
	dirUpdateScheme      FletcherReeves \
	linminMethod         DirUpdateRecommended \
	nIterations          100 \
	history              15 \
	knormThreshold       0 \
	energyDiffThreshold  1e-07 \
	nEnergyDiff          2 \
	alphaTstart          1 \
	alphaTmin            1e-10 \
	updateTestStepSize   yes \
	alphaTreduceFactor   0.1 \
	alphaTincreaseFactor 3 \
	nAlphaAdjustMax      3 \
	wolfeEnergy          0.0001 \
	wolfeGradient        0.9 \
	fdTest               no
exchange-regularization WignerSeitzTruncated
fluid LinearPCM 298.000000 1.013250
fluid-anion F- 0.5 MeanFieldLJ \
	epsBulk 1 \
	pMol 0 \
	epsInf 1 \
	Pvap 0 \
	sigmaBulk 0 \
	Rvdw 2.24877 \
	Res 0 \
	tauNuc 343133
fluid-cation Na+ 0.5 MeanFieldLJ \
	epsBulk 1 \
	pMol 0 \
	epsInf 1 \
	Pvap 0 \
	sigmaBulk 0 \
	Rvdw 2.19208 \
	Res 0 \
	tauNuc 343133
fluid-ex-corr lda-TF lda-PZ
fluid-gummel-loop 10 1.000000e-05
fluid-minimize  \
	dirUpdateScheme      PolakRibiere \
	linminMethod         DirUpdateRecommended \
	nIterations          400 \
	history              15 \
	knormThreshold       1e-11 \
	energyDiffThreshold  0 \
	nEnergyDiff          2 \
	alphaTstart          1 \
	alphaTmin            1e-10 \
	updateTestStepSize   yes \
	alphaTreduceFactor   0.1 \
	alphaTincreaseFactor 3 \
	nAlphaAdjustMax      6 \
	wolfeEnergy          0.0001 \
	wolfeGradient        0.9 \
	fdTest               no
fluid-solvent H2O 55.338 ScalarEOS \
	epsBulk 78.4 \
	pMol 0.92466 \
	epsInf 1.77 \
	Pvap 1.06736e-10 \
	sigmaBulk 4.62e-05 \
	Rvdw 2.61727 \
	Res 1.42 \
	tauNuc 343133 \
	poleEl 15 7 1
forces-output-coords Positions
ion C  -0.041839000000000   0.128571000000000   0.019855000000000 0
ion C  20.999047000000001   4.083743000000000   0.013539000000000 0
ion C  18.654335000000000   8.087956000000002  43.140170000000005 0
ion C  -7.085193000000002  12.090326000000003  43.114648000000010 0
ion C  -9.410787000000001  16.103451000000003  43.210072000000004 0
ion C   4.642995000000000   0.230047000000000   0.070205000000000 0
ion C   2.239020000000000   4.239740000000000   0.224154000000000 0
ion C  -0.171479000000000   8.063107000000000   0.168051000000000 0
ion C  -2.474503000000001  12.074215000000002  43.237194000000009 0
ion C  -4.764066000000001  16.105043999999999  43.222789000000006 0
ion C   9.334999000000002   0.119411000000000  43.251338000000004 0
ion C   7.048399000000002   4.213067000000001   0.148888000000000 0
ion C  -0.070936999999999  16.008793000000004   0.052383000000000 0
ion C  14.035939000000004   0.030767000000000   0.001427000000000 0
ion C  11.715279000000001   4.071967000000001  43.215046000000008 0
ion C   9.434076000000001   8.065594000000003   0.064971000000000 0
ion C   4.630620999999998  15.878213000000002   0.165239000000000 0
ion C  18.686064999999999   0.038048000000000   0.009560000000000 0
ion C  16.357243000000004   4.058373000000000  43.175294000000008 0
ion C  14.052051000000004   8.084123000000002  43.116249000000010 0
ion C  11.739752999999997  12.086485000000001  43.188574000000010 0
ion C   9.340382999999999  16.035710000000005   0.012631000000000 0
ion C  -0.060047000000000   2.810750000000001   0.069945000000000 0
ion C  -2.469478000000001   6.737903000000001  43.251079000000004 0
ion C  -4.784751000000000  10.739105000000002  43.135022000000006 0
ion C  -7.086404000000000  14.765576000000003  43.175510000000010 0
ion C  -9.415371000000002  18.790729000000002   0.019638000000000 0
ion C   4.640792000000001   2.945157000000000   0.184791000000000 0
ion C  -0.177648000000000  10.753954000000002   0.165974000000000 0
ion C  -2.443958000000001  14.748531000000003  43.255231000000009 0
ion C  -4.762837000000000  18.791009000000003   0.014361000000000 0
ion C   9.348737000000002   2.797545000000000   0.005926000000000 0
ion C   2.230784000000000  14.578887000000002   0.207933000000000 0
ion C  -0.056626000000001  18.690100000000005   0.001254000000000 0
ion C  14.035164000000000   2.717030000000001  43.202329000000006 0
ion C  11.741910000000003   6.747158000000001  43.196879000000010 0
ion C   9.436677000000000  10.766045000000000   0.061424000000000 0
ion C   7.039742000000002  14.612066000000002   0.141275000000000 0
ion C   4.628311000000000  18.595578000000003   0.052340000000000 0
ion C  18.681753000000004   2.723311000000000  43.225731000000010 0
ion C  16.354624999999999   6.733382000000000  43.118152000000009 0
ion C  14.051430000000000  10.754146000000002  43.113524000000005 0
ion C  11.707850000000002  14.763686000000002  43.215998000000006 0
ion C   9.320866000000001  18.713899000000005   0.003634000000000 0
ion C   4.351793000000000   8.504881000000001   5.362658000000001 1
ion N   2.094299000000000  11.990617000000002   0.413444000000000 0
ion N   7.170999999999998  12.030287000000003   0.269357000000000 0
ion N   2.105236000000000   6.830077000000001   0.423306000000000 0
ion N   7.169597000000003   6.794283000000000   0.290293000000000 0
ion Ti   4.730701999999999   9.401364000000001   1.662902000000000 0
ion O   4.128939000000001   8.014637000000002   7.523484000000002 1
ion O   7.562524000000001   2.560893000000001   6.459292000000000 1
ion H   7.470862000000002   4.410407000000000   6.500732000000001 1
ion H   5.787314000000000   2.020059000000000   6.487452000000002 1
ion-species /projects/musgravc/apps/jdftx-1.6.0/build/pseudopotentials/GBRV_v1.5/$ID_pbe_v1.uspp
ion-species /projects/musgravc/apps/jdftx-1.6.0/build/pseudopotentials/GBRV_v1.5/$ID_pbe_v1.2.uspp
ion-species /projects/musgravc/apps/jdftx-1.6.0/build/pseudopotentials/GBRV_v1.5/$ID_pbe_v1.4.uspp
ion-species /projects/musgravc/apps/jdftx-1.6.0/build/pseudopotentials/GBRV_v1.5/$ID_pbe_v1.5.uspp
ion-width Ecut
ionic-minimize  \
	dirUpdateScheme      L-BFGS \
	linminMethod         DirUpdateRecommended \
	nIterations          100 \
	history              15 \
	knormThreshold       0.0001 \
	energyDiffThreshold  0.0001 \
	nEnergyDiff          2 \
	alphaTstart          1 \
	alphaTmin            1e-10 \
	updateTestStepSize   yes \
	alphaTreduceFactor   0.1 \
	alphaTincreaseFactor 3 \
	nAlphaAdjustMax      3 \
	wolfeEnergy          0.0001 \
	wolfeGradient        0.9 \
	fdTest               no
kpoint   0.000000000000   0.000000000000   0.000000000000  1.00000000000000
kpoint-folding 3 3 1 
latt-move-scale 0 0 0
latt-scale 1 1 1 
lattice  \
	  23.436261999999999  -11.733459000000000    0.000000000000000  \
	   0.017994000000000   19.941849000000001    0.000000000000000  \
	   0.000000000000000    0.000000000000000   43.256312999999999 
lattice-minimize  \
	dirUpdateScheme      L-BFGS \
	linminMethod         DirUpdateRecommended \
	nIterations          0 \
	history              15 \
	knormThreshold       0 \
	energyDiffThreshold  1e-06 \
	nEnergyDiff          2 \
	alphaTstart          1 \
	alphaTmin            1e-10 \
	updateTestStepSize   yes \
	alphaTreduceFactor   0.1 \
	alphaTincreaseFactor 3 \
	nAlphaAdjustMax      3 \
	wolfeEnergy          0.0001 \
	wolfeGradient        0.9 \
	fdTest               no
lcao-params 30 1e-06 0.001
pcm-variant CANDLE
spintype z-spin
subspace-rotation-factor 1 yes
symmetries none
symmetry-threshold 0.0001
van-der-waals D3
vibrations \
	dr 0.01\
	centralDiff no\
	useConstraints yes\
	translationSym yes\
	rotationSym no\
	omegaMin 0.0002\
	T 298\
	omegaResolution 0.0001


Applied RMS atom displacement 0 bohrs to make symmetries exact.
Applied RMS atom displacement 0 bohrs to make symmetries exact.

---------- Initializing the Grid ----------
R = 
[      23.4363     -11.7335            0  ]
[     0.017994      19.9418            0  ]
[            0            0      43.2563  ]
unit cell volume = 20225.5
G =
[   0.267976   0.157673         -0  ]
[ -0.000241801   0.314933          0  ]
[          0         -0   0.145255  ]
Minimum fftbox size, Smin = [  96  96  176  ]
Chosen fftbox size, S = [  96  96  180  ]

---------- Exchange Correlation functional ----------
Initalized PBE GGA exchange.
Initalized PBE GGA correlation.

---------- Setting up pseudopotentials ----------
Width of ionic core gaussian charges (only for fluid interactions / plotting) set to 0.397384

Reading pseudopotential file '/projects/musgravc/apps/jdftx-1.6.0/build/pseudopotentials/GBRV_v1.5/c_pbe_v1.2.uspp':
  Title: C.  Created by USPP 7.3.6 on 3-2-2014
  Reference state energy: -5.406344.  4 valence electrons in orbitals:
    |200>  occupation: 2  eigenvalue: -0.504890
    |210>  occupation: 2  eigenvalue: -0.194356
  lMax: 1  lLocal: 2  QijEcut: 5
  4 projectors sampled on a log grid with 503 points:
    l: 0  eig: -0.504890  rCut: 1.3
    l: 0  eig: 0.000000  rCut: 1.3
    l: 1  eig: -0.194357  rCut: 1.3
    l: 1  eig: 0.000000  rCut: 1.3
  Partial core density with radius 1.1
  Transforming core density to a uniform radial grid of dG=0.02 with 1464 points.
  Transforming local potential to a uniform radial grid of dG=0.02 with 1464 points.
  Transforming nonlocal projectors to a uniform radial grid of dG=0.02 with 432 points.
  Transforming density augmentations to a uniform radial grid of dG=0.02 with 1464 points.
  Transforming atomic orbitals to a uniform radial grid of dG=0.02 with 432 points.
  Core radius for overlap checks: 1.30 bohrs.

Reading pseudopotential file '/projects/musgravc/apps/jdftx-1.6.0/build/pseudopotentials/GBRV_v1.5/n_pbe_v1.2.uspp':
  Title: N.  Created by USPP 7.3.6 on 3-2-2014
  Reference state energy: -9.763716.  5 valence electrons in orbitals:
    |200>  occupation: 2  eigenvalue: -0.681964
    |210>  occupation: 3  eigenvalue: -0.260726
  lMax: 1  lLocal: 2  QijEcut: 6
  4 projectors sampled on a log grid with 491 points:
    l: 0  eig: -0.681964  rCut: 1.15
    l: 0  eig: 0.000000  rCut: 1.15
    l: 1  eig: -0.260729  rCut: 1.2
    l: 1  eig: 0.500000  rCut: 1.2
  Partial core density with radius 0.8
  Transforming core density to a uniform radial grid of dG=0.02 with 1464 points.
  Transforming local potential to a uniform radial grid of dG=0.02 with 1464 points.
  Transforming nonlocal projectors to a uniform radial grid of dG=0.02 with 432 points.
  Transforming density augmentations to a uniform radial grid of dG=0.02 with 1464 points.
  Transforming atomic orbitals to a uniform radial grid of dG=0.02 with 432 points.
  Core radius for overlap checks: 1.20 bohrs.

Reading pseudopotential file '/projects/musgravc/apps/jdftx-1.6.0/build/pseudopotentials/GBRV_v1.5/ti_pbe_v1.4.uspp':
  Title: Ti.  Created by USPP 7.3.6 on 31-3-15
  Reference state energy: -59.020943.  12 valence electrons in orbitals:
    |300>  occupation: 2  eigenvalue: -2.777623
    |310>  occupation: 6  eigenvalue: -1.894596
    |400>  occupation: 2  eigenvalue: -0.438610
    |320>  occupation: 1  eigenvalue: -0.583119
  lMax: 2  lLocal: 3  QijEcut: 6
  6 projectors sampled on a log grid with 597 points:
    l: 0  eig: -2.777624  rCut: 1.8
    l: 0  eig: -0.438611  rCut: 1.8
    l: 1  eig: -1.894596  rCut: 1.8
    l: 1  eig: 0.500000  rCut: 1.8
    l: 2  eig: -0.583118  rCut: 1.8
    l: 2  eig: 0.150000  rCut: 1.8
  Partial core density with radius 0.8
  Transforming core density to a uniform radial grid of dG=0.02 with 1464 points.
  Transforming local potential to a uniform radial grid of dG=0.02 with 1464 points.
  Transforming nonlocal projectors to a uniform radial grid of dG=0.02 with 432 points.
  Transforming density augmentations to a uniform radial grid of dG=0.02 with 1464 points.
  Transforming atomic orbitals to a uniform radial grid of dG=0.02 with 432 points.
  Core radius for overlap checks: 1.80 bohrs.

Reading pseudopotential file '/projects/musgravc/apps/jdftx-1.6.0/build/pseudopotentials/GBRV_v1.5/o_pbe_v1.2.uspp':
  Title: O.  Created by USPP 7.3.6 on 3-2-2014
  Reference state energy: -15.894388.  6 valence electrons in orbitals:
    |200>  occupation: 2  eigenvalue: -0.878823
    |210>  occupation: 4  eigenvalue: -0.332131
  lMax: 2  lLocal: 2  QijEcut: 6
  5 projectors sampled on a log grid with 511 points:
    l: 0  eig: -0.878823  rCut: 1.25
    l: 0  eig: 0.000000  rCut: 1.25
    l: 1  eig: -0.332132  rCut: 1.25
    l: 1  eig: 0.000000  rCut: 1.25
    l: 2  eig: 1.000000  rCut: 1.25
  Partial core density with radius 0.7
  Transforming core density to a uniform radial grid of dG=0.02 with 1464 points.
  Transforming local potential to a uniform radial grid of dG=0.02 with 1464 points.
  Transforming nonlocal projectors to a uniform radial grid of dG=0.02 with 432 points.
  Transforming density augmentations to a uniform radial grid of dG=0.02 with 1464 points.
  Transforming atomic orbitals to a uniform radial grid of dG=0.02 with 432 points.
  Core radius for overlap checks: 1.25 bohrs.

Reading pseudopotential file '/projects/musgravc/apps/jdftx-1.6.0/build/pseudopotentials/GBRV_v1.5/h_pbe_v1.4.uspp':
  Title: H.  Created by USPP 7.3.6 on 2-4-15
  Reference state energy: -0.458849.  1 valence electrons in orbitals:
    |100>  occupation: 1  eigenvalue: -0.238595
  lMax: 0  lLocal: 1  QijEcut: 6
  2 projectors sampled on a log grid with 395 points:
    l: 0  eig: -0.238595  rCut: 1.2
    l: 0  eig: 1.000000  rCut: 1.2
  Transforming local potential to a uniform radial grid of dG=0.02 with 1464 points.
  Transforming nonlocal projectors to a uniform radial grid of dG=0.02 with 432 points.
  Transforming density augmentations to a uniform radial grid of dG=0.02 with 1464 points.
  Transforming atomic orbitals to a uniform radial grid of dG=0.02 with 432 points.
  Core radius for overlap checks: 1.20 bohrs.

Initialized 5 species with 54 total atoms.

Folded 1 k-points by 3x3x1 to 9 k-points.

---------- Setting up k-points, bands, fillings ----------
No reducable k-points. 
Computing the number of bands and number of electrons
Calculating initial fillings.
nElectrons: 226.000000   nBands: 136   nStates: 18

----- Setting up reduced wavefunction bases (one per k-point) -----
average nbasis = 86412.556 , ideal nbasis = 86404.907

----- Initializing Supercell corresponding to k-point mesh -----
Lattice vector linear combinations in supercell:
[   3   0   0  ]
[   0   3   0  ]
[   0   0   1  ]
Supercell lattice vectors:
[  70.3088  -35.2004  0  ]
[  0.053982  59.8255  0  ]
[  0  0  43.2563  ]

Initializing DFT-D3 calculator:
	Parameters set for gga-PBE functional
	s6:  1.000  s_r6:  1.217
	s8:  0.722  s_r8:  1.000
	Per-atom parameters loaded for:
	 C:  sqrtQ[a0]:  3.105  Rcov[a0]:  1.417  CN: [ 0.00 0.99 2.00 3.00 3.98 ]
	 N:  sqrtQ[a0]:  2.712  Rcov[a0]:  1.342  CN: [ 0.00 0.99 2.01 2.99 ]
	Ti:  sqrtQ[a0]:  6.288  Rcov[a0]:  2.305  CN: [ 0.00 1.83 3.87 ]
	 O:  sqrtQ[a0]:  2.594  Rcov[a0]:  1.191  CN: [ 0.00 0.99 1.99 ]
	 H:  sqrtQ[a0]:  2.007  Rcov[a0]:  0.605  CN: [ 0.91 0.00 ]

Initializing DFT-D2 calculator for fluid / solvation:
	 C:  C6:   30.35 Eh-a0^6  R0: 2.744 a0
	 N:  C6:   21.33 Eh-a0^6  R0: 2.640 a0
	Ti:  C6:  187.33 Eh-a0^6  R0: 2.952 a0
	 O:  C6:   12.14 Eh-a0^6  R0: 2.536 a0
	 H:  C6:    2.43 Eh-a0^6  R0: 1.892 a0

---------- Setting up ewald sum ----------
Optimum gaussian width for ewald sums = 5.590847 bohr.
Real space sum over 567 unit cells with max indices [  4  4  3  ]
Reciprocal space sum over 7803 terms with max indices [  8  8  13  ]

Computing DFT-D3 correction:
# coordination-number C 3.303 3.324 3.336 3.333 3.313 3.291 3.324 3.562 3.330 3.314 3.305 3.333 3.304 3.302 3.324 3.649 3.265 3.302 3.320 3.335 3.328 3.306 3.304 3.330 3.336 3.320 3.301 3.268 3.557 3.324 3.303 3.308 3.319 3.303 3.314 3.328 3.641 3.327 3.290 3.314 3.333 3.335 3.324 3.304 2.005
# coordination-number N 3.174 3.180 3.177 3.183
# coordination-number Ti 6.558
# coordination-number O 1.027 1.986
# coordination-number H 0.994 0.993
# diagonal-C6 C 24.26 24.04 23.91 23.94 24.15 24.36 24.04 20.76 23.98 24.14 24.24 23.95 24.24 24.27 24.04 19.74 24.59 24.26 24.08 23.92 23.99 24.22 24.24 23.98 23.91 24.08 24.27 24.56 20.83 24.04 24.26 24.21 24.09 24.25 24.14 23.99 19.82 24.00 24.37 24.14 23.94 23.92 24.04 24.25 29.48
# diagonal-C6 N 15.60 15.60 15.60 15.60
# diagonal-C6 Ti 321.59
# diagonal-C6 O 12.79 10.41
# diagonal-C6 H 3.09 3.09
EvdW_6 =   -0.042809
EvdW_8 =   -0.032899

---------- Allocating electronic variables ----------
Initializing wave functions:  linear combination of atomic orbitals
C pseudo-atom occupations:   s ( 2 )  p ( 2 )
N pseudo-atom occupations:   s ( 2 )  p ( 3 )
Ti pseudo-atom occupations:   s ( 2 0 )  p ( 6 )  d ( 4 )
O pseudo-atom occupations:   s ( 2 )  p ( 4 )
H pseudo-atom occupations:   s ( 1 )
	FillingsUpdate:  mu: -0.223789040  nElectrons: 226.000000  magneticMoment: [ Abs: 0.00442  Tot: +0.00001 ]
LCAOMinimize: Iter:   0  F: -383.5614747094866175  |grad|_K:  3.256e-03  alpha:  1.000e+00
	FillingsUpdate:  mu: -0.231797716  nElectrons: 226.000000  magneticMoment: [ Abs: 0.00436  Tot: -0.00000 ]
LCAOMinimize: Iter:   1  F: -384.0605167406773148  |grad|_K:  1.897e-03  alpha:  8.541e-02  linmin: -1.435e-01  cgtest:  1.299e+00  t[s]:    271.76
LCAOMinimize: Encountered beta<0, resetting CG.
LCAOMinimize: 	Predicted alpha/alphaT>3.000000, increasing alphaT to 2.562266e-01.
	FillingsUpdate:  mu: -0.265911266  nElectrons: 226.000000  magneticMoment: [ Abs: 0.00460  Tot: -0.00041 ]
LCAOMinimize: Iter:   2  F: -384.6316395994352320  |grad|_K:  1.288e-03  alpha:  1.981e-01  linmin:  1.287e-03  cgtest:  7.176e-01  t[s]:    407.07
LCAOMinimize: Encountered beta<0, resetting CG.
LCAOMinimize: 	Predicted alpha/alphaT>3.000000, increasing alphaT to 5.942593e-01.
	FillingsUpdate:  mu: -0.262801428  nElectrons: 226.000000  magneticMoment: [ Abs: 0.00462  Tot: -0.00043 ]
LCAOMinimize: Iter:   3  F: -384.6510650832156557  |grad|_K:  1.204e-03  alpha:  1.446e-02  linmin: -1.343e-01  cgtest:  9.524e-01  t[s]:    543.61
LCAOMinimize: Encountered beta<0, resetting CG.
LCAOMinimize: 	Wrong curvature in test step, increasing alphaT to 4.338651e-02.
	FillingsUpdate:  mu: -0.262163310  nElectrons: 226.000000  magneticMoment: [ Abs: 0.00465  Tot: -0.00046 ]
LCAOMinimize: Iter:   4  F: -384.6689121298932719  |grad|_K:  1.195e-03  alpha: -1.553e+00  linmin: -1.665e-01  cgtest:  9.786e-01  t[s]:    649.31
	FillingsUpdate:  mu: -0.262138769  nElectrons: 226.000000  magneticMoment: [ Abs: 0.00471  Tot: -0.00052 ]
LCAOMinimize: Iter:   5  F: -384.6981350062569049  |grad|_K:  1.191e-03  alpha:  2.343e-02  linmin: -1.726e-01  cgtest:  9.645e-01  t[s]:    757.42
LCAOMinimize: 	Wrong curvature in test step, increasing alphaT to 7.027900e-02.
	FillingsUpdate:  mu: -0.262561174  nElectrons: 226.000000  magneticMoment: [ Abs: 0.00478  Tot: -0.00060 ]
LCAOMinimize: Iter:   6  F: -384.7278301132397473  |grad|_K:  1.190e-03  alpha: -6.111e-01  linmin: -1.764e-01  cgtest:  9.609e-01  t[s]:    863.22
	FillingsUpdate:  mu: -0.262978135  nElectrons: 226.000000  magneticMoment: [ Abs: 0.00486  Tot: -0.00068 ]
LCAOMinimize: Iter:   7  F: -384.7582608539856892  |grad|_K:  1.192e-03  alpha:  2.380e-02  linmin: -1.799e-01  cgtest:  9.575e-01  t[s]:    971.19
LCAOMinimize: 	Wrong curvature in test step, increasing alphaT to 7.140730e-02.
	FillingsUpdate:  mu: -0.263420103  nElectrons: 226.000000  magneticMoment: [ Abs: 0.00495  Tot: -0.00076 ]
LCAOMinimize: Iter:   8  F: -384.7890213986800063  |grad|_K:  1.195e-03  alpha: -4.888e-01  linmin: -1.834e-01  cgtest:  9.548e-01  t[s]:   1077.93
	FillingsUpdate:  mu: -0.263915930  nElectrons: 226.000000  magneticMoment: [ Abs: 0.00504  Tot: -0.00085 ]
LCAOMinimize: Iter:   9  F: -384.8207660673573969  |grad|_K:  1.200e-03  alpha:  2.425e-02  linmin: -1.871e-01  cgtest:  9.513e-01  t[s]:   1189.83
LCAOMinimize: 	Wrong curvature in test step, increasing alphaT to 7.274198e-02.
	FillingsUpdate:  mu: -0.264454377  nElectrons: 226.000000  magneticMoment: [ Abs: 0.00514  Tot: -0.00094 ]
LCAOMinimize: Iter:  10  F: -384.8529946181114951  |grad|_K:  1.206e-03  alpha: -4.232e-01  linmin: -1.909e-01  cgtest:  9.488e-01  t[s]:   1301.82
	FillingsUpdate:  mu: -0.265060441  nElectrons: 226.000000  magneticMoment: [ Abs: 0.00524  Tot: -0.00103 ]
LCAOMinimize: Iter:  11  F: -384.8866013371508643  |grad|_K:  1.212e-03  alpha:  2.490e-02  linmin: -1.950e-01  cgtest:  9.451e-01  t[s]:   1416.85
LCAOMinimize: 	Wrong curvature in test step, increasing alphaT to 7.469278e-02.
	FillingsUpdate:  mu: -0.265713825  nElectrons: 226.000000  magneticMoment: [ Abs: 0.00534  Tot: -0.00111 ]
LCAOMinimize: Iter:  12  F: -384.9207409239427875  |grad|_K:  1.217e-03  alpha: -3.897e-01  linmin: -1.993e-01  cgtest:  9.427e-01  t[s]:   1529.92
	FillingsUpdate:  mu: -0.266442193  nElectrons: 226.000000  magneticMoment: [ Abs: 0.00543  Tot: -0.00119 ]
LCAOMinimize: Iter:  13  F: -384.9562632720569582  |grad|_K:  1.221e-03  alpha:  2.558e-02  linmin: -2.040e-01  cgtest:  9.391e-01  t[s]:   1644.71
LCAOMinimize: 	Wrong curvature in test step, increasing alphaT to 7.673448e-02.
	FillingsUpdate:  mu: -0.267213102  nElectrons: 226.000000  magneticMoment: [ Abs: 0.00553  Tot: -0.00126 ]
LCAOMinimize: Iter:  14  F: -384.9921277351946856  |grad|_K:  1.223e-03  alpha: -3.830e-01  linmin: -2.090e-01  cgtest:  9.371e-01  t[s]:   1756.72
	FillingsUpdate:  mu: -0.268031479  nElectrons: 226.000000  magneticMoment: [ Abs: 0.00561  Tot: -0.00132 ]
LCAOMinimize: Iter:  15  F: -385.0286014808168602  |grad|_K:  1.220e-03  alpha:  2.597e-02  linmin: -2.144e-01  cgtest:  9.347e-01  t[s]:   1872.03
LCAOMinimize: 	Wrong curvature in test step, increasing alphaT to 7.790846e-02.
	FillingsUpdate:  mu: -0.268849003  nElectrons: 226.000000  magneticMoment: [ Abs: 0.00568  Tot: -0.00136 ]
LCAOMinimize: Iter:  16  F: -385.0647992651353775  |grad|_K:  1.211e-03  alpha: -4.153e-01  linmin: -2.201e-01  cgtest:  9.337e-01  t[s]:   1984.55
	FillingsUpdate:  mu: -0.269561153  nElectrons: 226.000000  magneticMoment: [ Abs: 0.00574  Tot: -0.00138 ]
LCAOMinimize: Iter:  17  F: -385.0996445674816755  |grad|_K:  1.194e-03  alpha:  2.556e-02  linmin: -2.260e-01  cgtest:  9.345e-01  t[s]:   2099.62
LCAOMinimize: 	Wrong curvature in test step, increasing alphaT to 7.668110e-02.
	FillingsUpdate:  mu: -0.269189463  nElectrons: 226.000000  magneticMoment: [ Abs: 0.00579  Tot: -0.00139 ]
LCAOMinimize: Iter:  18  F: -385.1331579713719293  |grad|_K:  1.169e-03  alpha: -5.415e-01  linmin: -2.322e-01  cgtest:  9.351e-01  t[s]:   2213.18
	FillingsUpdate:  mu: -0.263777969  nElectrons: 226.000000  magneticMoment: [ Abs: 0.00582  Tot: -0.00139 ]
LCAOMinimize: Iter:  19  F: -385.1626639442669671  |grad|_K:  1.136e-03  alpha:  2.387e-02  linmin: -2.380e-01  cgtest:  9.410e-01  t[s]:   2328.28
LCAOMinimize: 	Wrong curvature in test step, increasing alphaT to 7.160863e-02.
	FillingsUpdate:  mu: -0.256113671  nElectrons: 226.000000  magneticMoment: [ Abs: 0.00584  Tot: -0.00138 ]
LCAOMinimize: Iter:  20  F: -385.1899780314802229  |grad|_K:  1.094e-03  alpha: -1.077e+00  linmin: -2.444e-01  cgtest:  9.435e-01  t[s]:   2441.24
	FillingsUpdate:  mu: -0.247811308  nElectrons: 226.000000  magneticMoment: [ Abs: 0.00585  Tot: -0.00137 ]
LCAOMinimize: Iter:  21  F: -385.2132387029329834  |grad|_K:  1.046e-03  alpha:  2.236e-02  linmin: -2.504e-01  cgtest:  9.501e-01  t[s]:   2555.76
LCAOMinimize: 	Predicted alpha/alphaT>3.000000, increasing alphaT to 6.708066e-02.
LCAOMinimize: 	Predicted alpha/alphaT>3.000000, increasing alphaT to 2.012420e-01.
	FillingsUpdate:  mu: -0.175300066  nElectrons: 226.000000  magneticMoment: [ Abs: 0.00606  Tot: -0.00168 ]
LCAOMinimize: Iter:  22  F: -385.3134752591975030  |grad|_K:  8.316e-04  alpha:  1.822e-01  linmin:  6.793e-02  cgtest: -2.041e-01  t[s]:   2729.26
	FillingsUpdate:  mu: -0.175199299  nElectrons: 226.000000  magneticMoment: [ Abs: 0.00605  Tot: -0.00168 ]
LCAOMinimize: Iter:  23  F: -385.3136938775330123  |grad|_K:  8.314e-04  alpha:  1.733e-03  linmin: -1.029e-02  cgtest:  9.993e-01  t[s]:   2843.79
LCAOMinimize: 	Predicted alpha/alphaT>3.000000, increasing alphaT to 5.200257e-03.
LCAOMinimize: 	Predicted alpha/alphaT>3.000000, increasing alphaT to 1.560077e-02.
LCAOMinimize: 	Predicted alpha/alphaT>3.000000, increasing alphaT to 4.680232e-02.
	FillingsUpdate:  mu: -0.234863555  nElectrons: 226.000000  magneticMoment: [ Abs: 0.00545  Tot: -0.00058 ]
LCAOMinimize: Iter:  24  F: -385.3252025559467029  |grad|_K:  7.586e-04  alpha:  1.034e-01  linmin:  5.378e-02  cgtest: -7.688e-01  t[s]:   3017.81
LCAOMinimize: 	Bad step direction: g.d > 0.
LCAOMinimize: 	Undoing step.
LCAOMinimize: 	Step failed: resetting search direction.
	FillingsUpdate:  mu: -0.234863555  nElectrons: 226.000000  magneticMoment: [ Abs: 0.00545  Tot: -0.00058 ]
LCAOMinimize: Iter:  25  F: -385.3252025559467029  |grad|_K:  7.586e-04  alpha:  0.000e+00
	FillingsUpdate:  mu: -0.185973297  nElectrons: 226.000000  magneticMoment: [ Abs: 0.00598  Tot: -0.00128 ]
LCAOMinimize: Iter:  26  F: -385.3386735816559394  |grad|_K:  1.391e-04  alpha:  5.602e-02  linmin:  3.415e-02  cgtest: -3.151e-01  t[s]:   3220.00
LCAOMinimize: 	Predicted alpha/alphaT>3.000000, increasing alphaT to 1.680460e-01.
	FillingsUpdate:  mu: -0.187611989  nElectrons: 226.000000  magneticMoment: [ Abs: 0.00684  Tot: -0.00187 ]
LCAOMinimize: Iter:  27  F: -385.3405357973205128  |grad|_K:  1.532e-04  alpha:  3.087e-01  linmin:  2.677e-02  cgtest:  2.935e-01  t[s]:   3364.92
	FillingsUpdate:  mu: -0.193544397  nElectrons: 226.000000  magneticMoment: [ Abs: 0.00704  Tot: -0.00190 ]
LCAOMinimize: Iter:  28  F: -385.3408983129069725  |grad|_K:  7.843e-05  alpha:  4.819e-02  linmin: -2.824e-03  cgtest:  6.144e-01  t[s]:   3480.12
LCAOMinimize: Encountered beta<0, resetting CG.
LCAOMinimize: 	Predicted alpha/alphaT>3.000000, increasing alphaT to 1.445619e-01.
	FillingsUpdate:  mu: -0.197768342  nElectrons: 226.000000  magneticMoment: [ Abs: 0.00758  Tot: -0.00232 ]
LCAOMinimize: Iter:  29  F: -385.3413335601295557  |grad|_K:  6.093e-05  alpha:  1.637e-01  linmin: -1.270e-02  cgtest:  9.312e-02  t[s]:   3624.67
	FillingsUpdate:  mu: -0.193077128  nElectrons: 226.000000  magneticMoment: [ Abs: 0.00821  Tot: -0.00287 ]
LCAOMinimize: Iter:  30  F: -385.3414719745342154  |grad|_K:  3.065e-05  alpha:  8.052e-02  linmin: -4.712e-06  cgtest: -2.506e-01  t[s]:   3740.83
LCAOMinimize: None of the convergence criteria satisfied after 30 iterations.
----- createFluidSolver() ----- (Fluid-side solver setup)
   Initializing fluid molecule 'H2O'
     Initializing site 'O'
       Electron density: proportional to exp(-r/0.36935)*erfc((r-0.51523)/0.36823) with norm 6.826
       Charge density: gaussian nuclear width 0.478731 with net site charge 0.826
       Polarizability: cuspless exponential with width 0.32 and norm 3.73
       Hard sphere radius: 2.57003 bohrs
       Positions in reference frame:
         [ +0.000000 +0.000000 +0.000000 ]
     Initializing site 'H'
       Electron density: proportional to exp(-r/0.34641)*erfc((r-0)/0.390882) with norm 0.587
       Charge density: gaussian nuclear width 0.377945 with net site charge -0.413
       Polarizability: cuspless exponential with width 0.39 and norm 3.3
       Positions in reference frame:
         [ +0.000000 -1.441945 +1.122523 ]
         [ +0.000000 +1.441945 +1.122523 ]
     Net charge: 0   dipole magnitude: 0.927204
     Initializing spherical shell mfKernel with radius 2.61727 Bohr
     deltaS corrections:
       site 'O': -7.54299
       site 'H': -6.83917
   Initializing fluid molecule 'Na+'
     Initializing site 'Na'
       Electron density: proportional to exp(-r/0.19682)*erfc((r-0.71491)/0.41314) with norm 8.1383
       Charge density: gaussian nuclear width 0.365347 with net site charge -1
       Hard sphere radius: 1.86327 bohrs
       Positions in reference frame:
         [ +0.000000 +0.000000 +0.000000 ]
     Net charge: -1   dipole magnitude: 0
     Initializing gaussian mfKernel with width: 1.55004 Bohr
     deltaS corrections:
       site 'Na': -22.3555
   Initializing fluid molecule 'F-'
     Initializing site 'F'
       Electron density: proportional to exp(-r/0.38886)*erfc((r-0)/0.438782) with norm 8
       Charge density: gaussian nuclear width 0.374796 with net site charge 1
       Hard sphere radius: 2.39995 bohrs
       Positions in reference frame:
         [ +0.000000 +0.000000 +0.000000 ]
     Net charge: 1   dipole magnitude: 0
     Initializing gaussian mfKernel with width: 1.59012 Bohr
     deltaS corrections:
       site 'F': -9.04335

Correction to mu due to finite nuclear width = -0.0110869
   Cavity determined by nc: 0.00142 and sigma: 0.707107
   Nonlocal vdW cavity from gaussian model electron density with norm = 8 and sigma = 0.993594 bohr
   Charge asymmetry in cavity with sensitivity pCavity = 36.5 e-bohr/Eh
   Electrostatic cavity expanded by eta = 1.46 bohrs
   Weighted density cavitation model constrained by Nbulk: 0.0049383 bohr^-3, Pvap: 3.14029 kPa, Rvdw: 2.61727 bohr and sigmaBulk: 4.62e-05 Eh/bohr^2 at T: 298 K.
   Weighted density dispersion model using vdW pair potentials with single solvent site with sqrtC6eff: 0.77 SI.
WARNING: Vibrations: switching off translationSym and rotationSym since useConstraints is on.

---- Citations for features of the code used in this run ----

   Software package:
      R. Sundararaman, K. Letchworth-Weaver, K.A. Schwarz, D. Gunceler, Y. Ozhabes and T.A. Arias, 'JDFTx: software for joint density-functional theory', SoftwareX 6, 278 (2017)

   gga-PBE exchange-correlation functional:
      J.P. Perdew, K. Burke and M. Ernzerhof, Phys. Rev. Lett. 77, 3865 (1996)

   Pseudopotentials:
      KF Garrity, JW Bennett, KM Rabe and D Vanderbilt, Comput. Mater. Sci. 81, 446 (2014)

   DFT-D3 dispersion correction:
      S. Grimme, J. Antony, S. Ehrlich and H. Krieg, J. Chem. Phys. 132, 154104 (2010)

   DFT-D2 dispersion correction:
      S. Grimme, J. Comput. Chem. 27, 1787 (2006)

   Charge-asymmetric nonlocally-determined local-electric (CANDLE) solvation model:
      R. Sundararaman and W.A. Goddard III, J. Chem. Phys. 142, 064107 (2015)

   Total energy minimization with Auxiliary Hamiltonian:
      C. Freysoldt, S. Boeck, and J. Neugebauer, Phys. Rev. B 79, 241103(R) (2009)

   Linear-tetrahedron sampling for density of states:
      G. Lehmann and M. Taut, Phys. status solidi (b) 54, 469 (1972)

This list may not be complete. Please suggest additional citations or
report any other bugs at https://github.com/shankar1729/jdftx/issues

Initialization completed successfully at t[s]:   3755.90

------ Vibrations::calculate() -------
WARNING: Vibrations module is experimental. Please report bugs!
Compare results with and without symmetries and report discrepancies.
Degrees of freedom: 15 total, 15 symmetry-independent.

Computing DFT-D3 correction:
# coordination-number C 3.303 3.324 3.336 3.333 3.313 3.291 3.324 3.562 3.330 3.314 3.305 3.333 3.304 3.302 3.324 3.649 3.265 3.302 3.320 3.335 3.328 3.306 3.304 3.330 3.336 3.320 3.301 3.268 3.557 3.324 3.303 3.308 3.319 3.303 3.314 3.328 3.641 3.327 3.290 3.314 3.333 3.335 3.324 3.304 2.005
# coordination-number N 3.174 3.180 3.177 3.183
# coordination-number Ti 6.558
# coordination-number O 1.027 1.986
# coordination-number H 0.994 0.993
# diagonal-C6 C 24.26 24.04 23.91 23.94 24.15 24.36 24.04 20.76 23.98 24.14 24.24 23.95 24.24 24.27 24.04 19.74 24.59 24.26 24.08 23.92 23.99 24.22 24.24 23.98 23.91 24.08 24.27 24.56 20.83 24.04 24.26 24.21 24.09 24.25 24.14 23.99 19.82 24.00 24.37 24.14 23.94 23.92 24.04 24.25 29.48
# diagonal-C6 N 15.60 15.60 15.60 15.60
# diagonal-C6 Ti 321.59
# diagonal-C6 O 12.79 10.41
# diagonal-C6 H 3.09 3.09
EvdW_6 =   -0.042809
EvdW_8 =   -0.032899
Fluid solver invoked on fresh (random / LCAO) wavefunctions
Running a vacuum solve first:

-------- Initial electronic minimization -----------
	FillingsUpdate:  mu: -0.193076858  nElectrons: 226.000000  magneticMoment: [ Abs: 0.00821  Tot: -0.00287 ]
ElecMinimize: Iter:   0  F: -385.341471974533818  |grad|_K:  1.443e-04  alpha:  1.000e+00
	FillingsUpdate:  mu: -0.143107499  nElectrons: 226.000000  magneticMoment: [ Abs: 0.00958  Tot: -0.00448 ]
	SubspaceRotationAdjust: set factor to 0.835
ElecMinimize: Iter:   1  F: -388.301627967624029  |grad|_K:  6.473e-05  alpha:  6.808e-01  linmin:  3.666e-04  t[s]:   3939.92
	FillingsUpdate:  mu: -0.063318509  nElectrons: 226.000000  magneticMoment: [ Abs: 0.01513  Tot: -0.01256 ]
	SubspaceRotationAdjust: set factor to 0.587
ElecMinimize: Iter:   2  F: -388.383013459690233  |grad|_K:  4.060e-05  alpha:  8.512e-02  linmin: -7.861e-04  t[s]:   4052.01
ElecMinimize: 	Predicted alpha/alphaT>3.000000, increasing alphaT to 2.553607e-01.
	FillingsUpdate:  mu: -0.061896792  nElectrons: 226.000000  magneticMoment: [ Abs: 0.02774  Tot: -0.02499 ]
	SubspaceRotationAdjust: set factor to 0.421
ElecMinimize: Iter:   3  F: -388.550172677029934  |grad|_K:  3.657e-05  alpha:  3.932e-01  linmin: -3.235e-04  t[s]:   4192.31
	FillingsUpdate:  mu: -0.113162920  nElectrons: 226.000000  magneticMoment: [ Abs: 0.02735  Tot: -0.02201 ]
	SubspaceRotationAdjust: set factor to 0.264
ElecMinimize: Iter:   4  F: -388.593711515007442  |grad|_K:  2.064e-05  alpha:  1.611e-01  linmin:  2.014e-04  t[s]:   4304.20
	FillingsUpdate:  mu: -0.088829164  nElectrons: 226.000000  magneticMoment: [ Abs: 0.05456  Tot: -0.05080 ]
	SubspaceRotationAdjust: set factor to 0.21
ElecMinimize: Iter:   5  F: -388.630297443195388  |grad|_K:  1.205e-05  alpha:  4.464e-01  linmin:  7.028e-05  t[s]:   4416.06
	FillingsUpdate:  mu: -0.071254938  nElectrons: 226.000000  magneticMoment: [ Abs: 0.07883  Tot: -0.07287 ]
	SubspaceRotationAdjust: set factor to 0.246
ElecMinimize: Iter:   6  F: -388.646591067155555  |grad|_K:  7.806e-06  alpha:  5.426e-01  linmin:  3.542e-06  t[s]:   4527.61
	FillingsUpdate:  mu: -0.088207323  nElectrons: 226.000000  magneticMoment: [ Abs: 0.09665  Tot: -0.08623 ]
	SubspaceRotationAdjust: set factor to 0.197
ElecMinimize: Iter:   7  F: -388.653327400225692  |grad|_K:  4.765e-06  alpha:  5.228e-01  linmin: -4.303e-05  t[s]:   4639.06
	FillingsUpdate:  mu: -0.084108036  nElectrons: 226.000000  magneticMoment: [ Abs: 0.13209  Tot: -0.11696 ]
	SubspaceRotationAdjust: set factor to 0.241
ElecMinimize: Iter:   8  F: -388.656187160819343  |grad|_K:  2.544e-06  alpha:  5.918e-01  linmin:  3.761e-05  t[s]:   4750.28
	FillingsUpdate:  mu: -0.079609343  nElectrons: 226.000000  magneticMoment: [ Abs: 0.18099  Tot: -0.15957 ]
	SubspaceRotationAdjust: set factor to 0.243
ElecMinimize: Iter:   9  F: -388.657217888121465  |grad|_K:  2.011e-06  alpha:  7.530e-01  linmin:  1.528e-06  t[s]:   4861.71
	FillingsUpdate:  mu: -0.084415471  nElectrons: 226.000000  magneticMoment: [ Abs: 0.24748  Tot: -0.21578 ]
	SubspaceRotationAdjust: set factor to 0.252
ElecMinimize: Iter:  10  F: -388.657753706972301  |grad|_K:  1.669e-06  alpha:  6.261e-01  linmin:  2.617e-06  t[s]:   4973.07
	FillingsUpdate:  mu: -0.082517108  nElectrons: 226.000000  magneticMoment: [ Abs: 0.38636  Tot: -0.33540 ]
	SubspaceRotationAdjust: set factor to 0.297
ElecMinimize: Iter:  11  F: -388.658261909866894  |grad|_K:  1.868e-06  alpha:  8.714e-01  linmin:  4.873e-05  t[s]:   5084.69
	FillingsUpdate:  mu: -0.081098141  nElectrons: 226.000000  magneticMoment: [ Abs: 0.64162  Tot: -0.56964 ]
	SubspaceRotationAdjust: set factor to 0.359
ElecMinimize: Iter:  12  F: -388.658922914639504  |grad|_K:  2.247e-06  alpha:  9.307e-01  linmin:  1.302e-04  t[s]:   5196.18
	FillingsUpdate:  mu: -0.082532679  nElectrons: 226.000000  magneticMoment: [ Abs: 0.85772  Tot: -0.78307 ]
	SubspaceRotationAdjust: set factor to 0.437
ElecMinimize: Iter:  13  F: -388.659402253176836  |grad|_K:  2.377e-06  alpha:  5.062e-01  linmin:  2.307e-05  t[s]:   5307.85
	FillingsUpdate:  mu: -0.084014183  nElectrons: 226.000000  magneticMoment: [ Abs: 1.12951  Tot: -1.05509 ]
	SubspaceRotationAdjust: set factor to 0.447
ElecMinimize: Iter:  14  F: -388.660011400759913  |grad|_K:  2.578e-06  alpha:  5.162e-01  linmin: -1.412e-04  t[s]:   5419.30
	FillingsUpdate:  mu: -0.084349068  nElectrons: 226.000000  magneticMoment: [ Abs: 1.58459  Tot: -1.48200 ]
	SubspaceRotationAdjust: set factor to 0.523
ElecMinimize: Iter:  15  F: -388.660926337100477  |grad|_K:  3.616e-06  alpha:  7.192e-01  linmin:  8.340e-04  t[s]:   5531.02
	FillingsUpdate:  mu: -0.085398131  nElectrons: 226.000000  magneticMoment: [ Abs: 1.69031  Tot: -1.55122 ]
	SubspaceRotationAdjust: set factor to 0.625
ElecMinimize: Iter:  16  F: -388.661044103103848  |grad|_K:  3.506e-06  alpha:  1.708e-01  linmin:  7.987e-04  t[s]:   5642.49
	FillingsUpdate:  mu: -0.086512525  nElectrons: 226.000000  magneticMoment: [ Abs: 1.76771  Tot: -1.58020 ]
	SubspaceRotationAdjust: set factor to 0.752
ElecMinimize: Iter:  17  F: -388.661439151136676  |grad|_K:  2.966e-06  alpha:  1.933e-01  linmin: -3.208e-04  t[s]:   5754.19
	FillingsUpdate:  mu: -0.084609444  nElectrons: 226.000000  magneticMoment: [ Abs: 1.86829  Tot: -1.64871 ]
	SubspaceRotationAdjust: set factor to 0.853
ElecMinimize: Iter:  18  F: -388.661990060882658  |grad|_K:  2.678e-06  alpha:  2.823e-01  linmin:  1.251e-04  t[s]:   5865.68
	FillingsUpdate:  mu: -0.083321553  nElectrons: 226.000000  magneticMoment: [ Abs: 1.93147  Tot: -1.69948 ]
	SubspaceRotationAdjust: set factor to 1.09
ElecMinimize: Iter:  19  F: -388.662367029299389  |grad|_K:  2.673e-06  alpha:  2.666e-01  linmin: -1.017e-05  t[s]:   5977.08
	FillingsUpdate:  mu: -0.086157434  nElectrons: 226.000000  magneticMoment: [ Abs: 1.94156  Tot: -1.69161 ]
	SubspaceRotationAdjust: set factor to 1.2
ElecMinimize: Iter:  20  F: -388.662697742952560  |grad|_K:  2.288e-06  alpha:  2.153e-01  linmin:  4.206e-06  t[s]:   6088.47
	FillingsUpdate:  mu: -0.087307396  nElectrons: 226.000000  magneticMoment: [ Abs: 1.93118  Tot: -1.67201 ]
	SubspaceRotationAdjust: set factor to 1.21
ElecMinimize: Iter:  21  F: -388.662979239134756  |grad|_K:  2.667e-06  alpha:  2.605e-01  linmin:  7.339e-05  t[s]:   6200.10
	FillingsUpdate:  mu: -0.086531193  nElectrons: 226.000000  magneticMoment: [ Abs: 1.92653  Tot: -1.67216 ]
	SubspaceRotationAdjust: set factor to 1.57
ElecMinimize: Iter:  22  F: -388.663176506410252  |grad|_K:  2.321e-06  alpha:  1.398e-01  linmin: -1.810e-05  t[s]:   6311.43
	FillingsUpdate:  mu: -0.084647676  nElectrons: 226.000000  magneticMoment: [ Abs: 1.92111  Tot: -1.67821 ]
	SubspaceRotationAdjust: set factor to 1.77
ElecMinimize: Iter:  23  F: -388.663342262533263  |grad|_K:  2.100e-06  alpha:  1.427e-01  linmin: -4.770e-05  t[s]:   6422.98
	FillingsUpdate:  mu: -0.084282265  nElectrons: 226.000000  magneticMoment: [ Abs: 1.88877  Tot: -1.65691 ]
	SubspaceRotationAdjust: set factor to 1.41
ElecMinimize: Iter:  24  F: -388.663524010677861  |grad|_K:  2.172e-06  alpha:  1.902e-01  linmin:  3.655e-05  t[s]:   6534.30
	FillingsUpdate:  mu: -0.085596038  nElectrons: 226.000000  magneticMoment: [ Abs: 1.84365  Tot: -1.61885 ]
	SubspaceRotationAdjust: set factor to 1.51
ElecMinimize: Iter:  25  F: -388.663666639430744  |grad|_K:  1.869e-06  alpha:  1.451e-01  linmin: -1.931e-06  t[s]:   6645.69
	FillingsUpdate:  mu: -0.085100259  nElectrons: 226.000000  magneticMoment: [ Abs: 1.81092  Tot: -1.59728 ]
	SubspaceRotationAdjust: set factor to 1.54
ElecMinimize: Iter:  26  F: -388.663794222593367  |grad|_K:  1.812e-06  alpha:  1.727e-01  linmin:  1.034e-05  t[s]:   6756.96
	FillingsUpdate:  mu: -0.084783963  nElectrons: 226.000000  magneticMoment: [ Abs: 1.78782  Tot: -1.58588 ]
	SubspaceRotationAdjust: set factor to 1.39
ElecMinimize: Iter:  27  F: -388.663916603880978  |grad|_K:  1.729e-06  alpha:  1.784e-01  linmin: -2.829e-06  t[s]:   6868.49
	FillingsUpdate:  mu: -0.085439787  nElectrons: 226.000000  magneticMoment: [ Abs: 1.77780  Tot: -1.58224 ]
	SubspaceRotationAdjust: set factor to 1.88
ElecMinimize: Iter:  28  F: -388.664002586935567  |grad|_K:  1.395e-06  alpha:  1.356e-01  linmin: -1.597e-06  t[s]:   6979.92
	FillingsUpdate:  mu: -0.085251565  nElectrons: 226.000000  magneticMoment: [ Abs: 1.77971  Tot: -1.58645 ]
	SubspaceRotationAdjust: set factor to 1.78
ElecMinimize: Iter:  29  F: -388.664076271806721  |grad|_K:  1.433e-06  alpha:  1.776e-01  linmin: -4.643e-05  t[s]:   7092.03
	FillingsUpdate:  mu: -0.084289511  nElectrons: 226.000000  magneticMoment: [ Abs: 1.78940  Tot: -1.59522 ]
	SubspaceRotationAdjust: set factor to 1.94
ElecMinimize: Iter:  30  F: -388.664141880536135  |grad|_K:  1.288e-06  alpha:  1.486e-01  linmin: -5.642e-06  t[s]:   7204.01
	FillingsUpdate:  mu: -0.085110401  nElectrons: 226.000000  magneticMoment: [ Abs: 1.79617  Tot: -1.59856 ]
	SubspaceRotationAdjust: set factor to 2.34
ElecMinimize: Iter:  31  F: -388.664192926843782  |grad|_K:  1.096e-06  alpha:  1.449e-01  linmin: -6.661e-06  t[s]:   7315.94
	FillingsUpdate:  mu: -0.085738345  nElectrons: 226.000000  magneticMoment: [ Abs: 1.80851  Tot: -1.60668 ]
	SubspaceRotationAdjust: set factor to 2.15
ElecMinimize: Iter:  32  F: -388.664237900553985  |grad|_K:  1.110e-06  alpha:  1.751e-01  linmin: -7.419e-06  t[s]:   7427.08
	FillingsUpdate:  mu: -0.084783880  nElectrons: 226.000000  magneticMoment: [ Abs: 1.82299  Tot: -1.62028 ]
	SubspaceRotationAdjust: set factor to 2.35
ElecMinimize: Iter:  33  F: -388.664265682215330  |grad|_K:  8.849e-07  alpha:  1.050e-01  linmin: -4.551e-07  t[s]:   7537.91
	FillingsUpdate:  mu: -0.084991400  nElectrons: 226.000000  magneticMoment: [ Abs: 1.82880  Tot: -1.62372 ]
	SubspaceRotationAdjust: set factor to 2.67
ElecMinimize: Iter:  34  F: -388.664292656167561  |grad|_K:  8.086e-07  alpha:  1.629e-01  linmin:  5.825e-06  t[s]:   7646.65
	FillingsUpdate:  mu: -0.085614506  nElectrons: 226.000000  magneticMoment: [ Abs: 1.82544  Tot: -1.61802 ]
	SubspaceRotationAdjust: set factor to 2.7
ElecMinimize: Iter:  35  F: -388.664311777866146  |grad|_K:  8.415e-07  alpha:  1.383e-01  linmin:  1.314e-05  t[s]:   7753.63
	FillingsUpdate:  mu: -0.085035623  nElectrons: 226.000000  magneticMoment: [ Abs: 1.82566  Tot: -1.61881 ]
	SubspaceRotationAdjust: set factor to 2.95
ElecMinimize: Iter:  36  F: -388.664327403295431  |grad|_K:  7.364e-07  alpha:  1.046e-01  linmin:  1.199e-06  t[s]:   7858.87
	FillingsUpdate:  mu: -0.084994167  nElectrons: 226.000000  magneticMoment: [ Abs: 1.82312  Tot: -1.61748 ]
	SubspaceRotationAdjust: set factor to 3.07
ElecMinimize: Iter:  37  F: -388.664342355928738  |grad|_K:  6.573e-07  alpha:  1.305e-01  linmin:  3.025e-06  t[s]:   7963.53
	FillingsUpdate:  mu: -0.085500641  nElectrons: 226.000000  magneticMoment: [ Abs: 1.81750  Tot: -1.61217 ]
	SubspaceRotationAdjust: set factor to 2.47
ElecMinimize: Iter:  38  F: -388.664352473476470  |grad|_K:  6.915e-07  alpha:  1.110e-01  linmin: -2.170e-07  t[s]:   8067.97
	FillingsUpdate:  mu: -0.085064221  nElectrons: 226.000000  magneticMoment: [ Abs: 1.81552  Tot: -1.61126 ]
	SubspaceRotationAdjust: set factor to 3.15
ElecMinimize: Iter:  39  F: -388.664361781887692  |grad|_K:  5.224e-07  alpha:  9.193e-02  linmin: -1.755e-07  t[s]:   8172.22
	FillingsUpdate:  mu: -0.084867822  nElectrons: 226.000000  magneticMoment: [ Abs: 1.81466  Tot: -1.61098 ]
	SubspaceRotationAdjust: set factor to 3.02
ElecMinimize: Iter:  40  F: -388.664371423175282  |grad|_K:  6.026e-07  alpha:  1.666e-01  linmin: -6.410e-06  t[s]:   8276.56
	FillingsUpdate:  mu: -0.085358318  nElectrons: 226.000000  magneticMoment: [ Abs: 1.81418  Tot: -1.60998 ]
	SubspaceRotationAdjust: set factor to 3.07
ElecMinimize: Iter:  41  F: -388.664378028466274  |grad|_K:  5.355e-07  alpha:  8.582e-02  linmin:  1.125e-06  t[s]:   8380.93
	FillingsUpdate:  mu: -0.085139498  nElectrons: 226.000000  magneticMoment: [ Abs: 1.81892  Tot: -1.61422 ]
	SubspaceRotationAdjust: set factor to 3.3
ElecMinimize: Iter:  42  F: -388.664384891087252  |grad|_K:  4.691e-07  alpha:  1.131e-01  linmin: -1.018e-06  t[s]:   8485.25
	FillingsUpdate:  mu: -0.084904244  nElectrons: 226.000000  magneticMoment: [ Abs: 1.82304  Tot: -1.61682 ]
	SubspaceRotationAdjust: set factor to 2.69
ElecMinimize: Iter:  43  F: -388.664390655444834  |grad|_K:  4.766e-07  alpha:  1.236e-01  linmin: -1.134e-07  t[s]:   8589.32
	FillingsUpdate:  mu: -0.085305757  nElectrons: 226.000000  magneticMoment: [ Abs: 1.82387  Tot: -1.61570 ]
	SubspaceRotationAdjust: set factor to 2.69
ElecMinimize: Iter:  44  F: -388.664394448084238  |grad|_K:  3.955e-07  alpha:  7.887e-02  linmin: -7.839e-08  t[s]:   8693.59
	FillingsUpdate:  mu: -0.085266988  nElectrons: 226.000000  magneticMoment: [ Abs: 1.82825  Tot: -1.61851 ]
	SubspaceRotationAdjust: set factor to 3.26
ElecMinimize: Iter:  45  F: -388.664399085000980  |grad|_K:  3.614e-07  alpha:  1.400e-01  linmin:  8.037e-07  t[s]:   8797.78
	FillingsUpdate:  mu: -0.084953197  nElectrons: 226.000000  magneticMoment: [ Abs: 1.83183  Tot: -1.62166 ]
	SubspaceRotationAdjust: set factor to 2.74
ElecMinimize: Iter:  46  F: -388.664402079753984  |grad|_K:  3.953e-07  alpha:  1.083e-01  linmin:  4.506e-07  t[s]:   8901.91
	FillingsUpdate:  mu: -0.085242755  nElectrons: 226.000000  magneticMoment: [ Abs: 1.83136  Tot: -1.62013 ]
	SubspaceRotationAdjust: set factor to 3.2
ElecMinimize: Iter:  47  F: -388.664404992491484  |grad|_K:  2.950e-07  alpha:  8.803e-02  linmin:  5.216e-07  t[s]:   9006.45
	FillingsUpdate:  mu: -0.085388957  nElectrons: 226.000000  magneticMoment: [ Abs: 1.82972  Tot: -1.61810 ]
	SubspaceRotationAdjust: set factor to 2.66
ElecMinimize: Iter:  48  F: -388.664407683595982  |grad|_K:  3.182e-07  alpha:  1.463e-01  linmin:  5.776e-07  t[s]:   9110.49
	FillingsUpdate:  mu: -0.085116524  nElectrons: 226.000000  magneticMoment: [ Abs: 1.83010  Tot: -1.61922 ]
	SubspaceRotationAdjust: set factor to 2.55
ElecMinimize: Iter:  49  F: -388.664409415043394  |grad|_K:  2.721e-07  alpha:  8.076e-02  linmin: -1.949e-07  t[s]:   9214.80
	FillingsUpdate:  mu: -0.085166604  nElectrons: 226.000000  magneticMoment: [ Abs: 1.82866  Tot: -1.61866 ]
	SubspaceRotationAdjust: set factor to 2.58
ElecMinimize: Iter:  50  F: -388.664411446556187  |grad|_K:  2.456e-07  alpha:  1.295e-01  linmin: -3.332e-08  t[s]:   9318.91
	FillingsUpdate:  mu: -0.085379820  nElectrons: 226.000000  magneticMoment: [ Abs: 1.82607  Tot: -1.61654 ]
	SubspaceRotationAdjust: set factor to 2.28
ElecMinimize: Iter:  51  F: -388.664412978073756  |grad|_K:  2.478e-07  alpha:  1.199e-01  linmin: -5.081e-07  t[s]:   9423.24
	FillingsUpdate:  mu: -0.085236207  nElectrons: 226.000000  magneticMoment: [ Abs: 1.82523  Tot: -1.61646 ]
	SubspaceRotationAdjust: set factor to 2.54
ElecMinimize: Iter:  52  F: -388.664414214084843  |grad|_K:  1.944e-07  alpha:  9.507e-02  linmin: -2.623e-07  t[s]:   9527.45
	FillingsUpdate:  mu: -0.085129605  nElectrons: 226.000000  magneticMoment: [ Abs: 1.82499  Tot: -1.61700 ]
	SubspaceRotationAdjust: set factor to 2.26
ElecMinimize: Iter:  53  F: -388.664415484029405  |grad|_K:  2.061e-07  alpha:  1.587e-01  linmin: -6.240e-07  t[s]:   9631.66
	FillingsUpdate:  mu: -0.085281111  nElectrons: 226.000000  magneticMoment: [ Abs: 1.82445  Tot: -1.61660 ]
	SubspaceRotationAdjust: set factor to 2.52
ElecMinimize: Iter:  54  F: -388.664416235790725  |grad|_K:  1.617e-07  alpha:  8.361e-02  linmin:  1.608e-07  t[s]:   9735.84
	FillingsUpdate:  mu: -0.085276136  nElectrons: 226.000000  magneticMoment: [ Abs: 1.82501  Tot: -1.61732 ]
	SubspaceRotationAdjust: set factor to 2.51
ElecMinimize: Iter:  55  F: -388.664417155684703  |grad|_K:  1.752e-07  alpha:  1.662e-01  linmin:  3.118e-09  t[s]:   9840.13
	FillingsUpdate:  mu: -0.085118422  nElectrons: 226.000000  magneticMoment: [ Abs: 1.82598  Tot: -1.61838 ]
	SubspaceRotationAdjust: set factor to 2.43
ElecMinimize: Iter:  56  F: -388.664417771245155  |grad|_K:  1.606e-07  alpha:  9.467e-02  linmin: -2.323e-07  t[s]:   9944.33
	FillingsUpdate:  mu: -0.085182817  nElectrons: 226.000000  magneticMoment: [ Abs: 1.82612  Tot: -1.61821 ]
	SubspaceRotationAdjust: set factor to 2.55
ElecMinimize: Iter:  57  F: -388.664418447441562  |grad|_K:  1.416e-07  alpha:  1.238e-01  linmin:  7.959e-07  t[s]:  10048.68
	FillingsUpdate:  mu: -0.085297959  nElectrons: 226.000000  magneticMoment: [ Abs: 1.82632  Tot: -1.61822 ]
	SubspaceRotationAdjust: set factor to 2.39
ElecMinimize: Iter:  58  F: -388.664418938275048  |grad|_K:  1.418e-07  alpha:  1.158e-01  linmin:  3.754e-07  t[s]:  10153.09
	FillingsUpdate:  mu: -0.085201309  nElectrons: 226.000000  magneticMoment: [ Abs: 1.82735  Tot: -1.61936 ]
	SubspaceRotationAdjust: set factor to 2.75
ElecMinimize: Iter:  59  F: -388.664419340029269  |grad|_K:  1.123e-07  alpha:  9.448e-02  linmin:  1.031e-07  t[s]:  10257.35
	FillingsUpdate:  mu: -0.085125954  nElectrons: 226.000000  magneticMoment: [ Abs: 1.82761  Tot: -1.61967 ]
	SubspaceRotationAdjust: set factor to 2.28
ElecMinimize: Iter:  60  F: -388.664419743677115  |grad|_K:  1.289e-07  alpha:  1.514e-01  linmin:  2.635e-07  t[s]:  10361.61
	FillingsUpdate:  mu: -0.085236446  nElectrons: 226.000000  magneticMoment: [ Abs: 1.82673  Tot: -1.61859 ]
	SubspaceRotationAdjust: set factor to 2.54
ElecMinimize: Iter:  61  F: -388.664420024264587  |grad|_K:  1.006e-07  alpha:  7.997e-02  linmin:  1.199e-07  t[s]:  10465.93
	FillingsUpdate:  mu: -0.085288736  nElectrons: 226.000000  magneticMoment: [ Abs: 1.82584  Tot: -1.61772 ]
	SubspaceRotationAdjust: set factor to 2.05
ElecMinimize: Iter:  62  F: -388.664420364079490  |grad|_K:  1.086e-07  alpha:  1.586e-01  linmin: -1.581e-08  t[s]:  10570.12
	FillingsUpdate:  mu: -0.085202089  nElectrons: 226.000000  magneticMoment: [ Abs: 1.82596  Tot: -1.61808 ]
	SubspaceRotationAdjust: set factor to 2.29
ElecMinimize: Iter:  63  F: -388.664420554720380  |grad|_K:  8.132e-08  alpha:  7.639e-02  linmin:  1.649e-07  t[s]:  10674.31
	FillingsUpdate:  mu: -0.085178156  nElectrons: 226.000000  magneticMoment: [ Abs: 1.82582  Tot: -1.61819 ]
	SubspaceRotationAdjust: set factor to 2.07
ElecMinimize: Iter:  64  F: -388.664420764612771  |grad|_K:  8.885e-08  alpha:  1.500e-01  linmin:  1.965e-07  t[s]:  10778.63
	FillingsUpdate:  mu: -0.085254089  nElectrons: 226.000000  magneticMoment: [ Abs: 1.82515  Tot: -1.61754 ]
	SubspaceRotationAdjust: set factor to 2.44
ElecMinimize: Iter:  65  F: -388.664420918588235  |grad|_K:  7.471e-08  alpha:  9.217e-02  linmin:  3.437e-09  t[s]:  10882.89
	FillingsUpdate:  mu: -0.085256827  nElectrons: 226.000000  magneticMoment: [ Abs: 1.82471  Tot: -1.61712 ]
	SubspaceRotationAdjust: set factor to 2.79
ElecMinimize: Iter:  66  F: -388.664421062765769  |grad|_K:  6.993e-08  alpha:  1.220e-01  linmin: -1.102e-07  t[s]:  10987.26
	FillingsUpdate:  mu: -0.085185961  nElectrons: 226.000000  magneticMoment: [ Abs: 1.82496  Tot: -1.61746 ]
	SubspaceRotationAdjust: set factor to 2.17
ElecMinimize: Iter:  67  F: -388.664421165964711  |grad|_K:  7.566e-08  alpha:  9.970e-02  linmin: -1.515e-07  t[s]:  11091.53
	FillingsUpdate:  mu: -0.085194938  nElectrons: 226.000000  magneticMoment: [ Abs: 1.82522  Tot: -1.61773 ]
	SubspaceRotationAdjust: set factor to 2.48
ElecMinimize: Iter:  68  F: -388.664421291859128  |grad|_K:  5.393e-08  alpha:  1.038e-01  linmin:  2.963e-07  t[s]:  11195.57
	FillingsUpdate:  mu: -0.085249671  nElectrons: 226.000000  magneticMoment: [ Abs: 1.82525  Tot: -1.61766 ]
	SubspaceRotationAdjust: set factor to 2.23
ElecMinimize: Iter:  69  F: -388.664421357219453  |grad|_K:  5.772e-08  alpha:  1.062e-01  linmin: -6.109e-08  t[s]:  11299.88
	FillingsUpdate:  mu: -0.085232991  nElectrons: 226.000000  magneticMoment: [ Abs: 1.82569  Tot: -1.61799 ]
	SubspaceRotationAdjust: set factor to 3.08
ElecMinimize: Iter:  70  F: -388.664421447351685  |grad|_K:  4.624e-08  alpha:  1.279e-01  linmin:  5.357e-09  t[s]:  11403.94
ElecMinimize: Converged (|Delta F|<1.000000e-07 for 2 iters).
Setting wave functions to eigenvectors of Hamiltonian
Converging empty states (this may take a while): |deigs|: 4.649e-03
Vacuum energy after initial minimize, F = -388.664421447351685


-------- Electronic minimization -----------
	Linear fluid (dielectric constant: 78.4, screening length: 8.12261 Bohr) occupying 0.711441 of unit cell:	Completed after 23 iterations at t[s]:  12176.52
	FillingsUpdate:  mu: -0.143665006  nElectrons: 226.000000  magneticMoment: [ Abs: 1.82616  Tot: -1.61844 ]
ElecMinimize: Iter:   0  F: -388.662039377744463  |grad|_K:  4.045e-06  alpha:  1.000e+00
	Linear fluid (dielectric constant: 78.4, screening length: 8.12261 Bohr) occupying 0.712864 of unit cell:	Completed after 19 iterations at t[s]:  12288.49
	Linear fluid (dielectric constant: 78.4, screening length: 8.12261 Bohr) occupying 0.711626 of unit cell:	Completed after 19 iterations at t[s]:  12337.71
	FillingsUpdate:  mu: -0.145359190  nElectrons: 226.000000  magneticMoment: [ Abs: 1.83968  Tot: -1.63538 ]
	SubspaceRotationAdjust: set factor to 2.26
ElecMinimize: Iter:   1  F: -388.662575710555757  |grad|_K:  3.516e-06  alpha:  1.611e-01  linmin:  1.081e-05  t[s]:  12389.04
	Linear fluid (dielectric constant: 78.4, screening length: 8.12261 Bohr) occupying 0.711857 of unit cell:	Completed after 13 iterations at t[s]:  12440.43
	Linear fluid (dielectric constant: 78.4, screening length: 8.12261 Bohr) occupying 0.711805 of unit cell:	Completed after 8 iterations at t[s]:  12482.61
	FillingsUpdate:  mu: -0.141139862  nElectrons: 226.000000  magneticMoment: [ Abs: 1.85412  Tot: -1.65433 ]
	SubspaceRotationAdjust: set factor to 1.58
ElecMinimize: Iter:   2  F: -388.662891407542475  |grad|_K:  3.197e-06  alpha:  1.246e-01  linmin:  2.834e-07  t[s]:  12534.13
	Linear fluid (dielectric constant: 78.4, screening length: 8.12261 Bohr) occupying 0.711959 of unit cell:	Completed after 11 iterations at t[s]:  12584.13
	Linear fluid (dielectric constant: 78.4, screening length: 8.12261 Bohr) occupying 0.712005 of unit cell:	Completed after 8 iterations at t[s]:  12626.15
	FillingsUpdate:  mu: -0.144303808  nElectrons: 226.000000  magneticMoment: [ Abs: 1.82684  Tot: -1.61650 ]
	SubspaceRotationAdjust: set factor to 1.24
ElecMinimize: Iter:   3  F: -388.663242701721913  |grad|_K:  1.628e-06  alpha:  1.616e-01  linmin: -6.768e-06  t[s]:  12677.62
	Linear fluid (dielectric constant: 78.4, screening length: 8.12261 Bohr) occupying 0.712086 of unit cell:	Completed after 8 iterations at t[s]:  12725.66
	Linear fluid (dielectric constant: 78.4, screening length: 8.12261 Bohr) occupying 0.712200 of unit cell:	Completed after 9 iterations at t[s]:  12768.33
	FillingsUpdate:  mu: -0.144402312  nElectrons: 226.000000  magneticMoment: [ Abs: 1.84093  Tot: -1.63554 ]
	SubspaceRotationAdjust: set factor to 0.897
ElecMinimize: Iter:   4  F: -388.663462767006820  |grad|_K:  1.443e-06  alpha:  3.875e-01  linmin:  9.875e-05  t[s]:  12819.77
	Linear fluid (dielectric constant: 78.4, screening length: 8.12261 Bohr) occupying 0.712380 of unit cell:	Completed after 9 iterations at t[s]:  12868.29
	Linear fluid (dielectric constant: 78.4, screening length: 8.12261 Bohr) occupying 0.712314 of unit cell:	Completed after 7 iterations at t[s]:  12909.52
	FillingsUpdate:  mu: -0.142146680  nElectrons: 226.000000  magneticMoment: [ Abs: 1.85241  Tot: -1.65200 ]
	SubspaceRotationAdjust: set factor to 0.641
ElecMinimize: Iter:   5  F: -388.663569596581283  |grad|_K:  1.157e-06  alpha:  2.448e-01  linmin:  3.363e-07  t[s]:  12961.53
	Linear fluid (dielectric constant: 78.4, screening length: 8.12261 Bohr) occupying 0.712375 of unit cell:	Completed after 9 iterations at t[s]:  13010.05
	Linear fluid (dielectric constant: 78.4, screening length: 8.12261 Bohr) occupying 0.712387 of unit cell:	Completed after 4 iterations at t[s]:  13049.31
	FillingsUpdate:  mu: -0.143646590  nElectrons: 226.000000  magneticMoment: [ Abs: 1.84191  Tot: -1.63806 ]
	SubspaceRotationAdjust: set factor to 0.713
ElecMinimize: Iter:   6  F: -388.663652278821758  |grad|_K:  5.160e-07  alpha:  2.917e-01  linmin: -1.212e-06  t[s]:  13100.67
	Linear fluid (dielectric constant: 78.4, screening length: 8.12261 Bohr) occupying 0.712391 of unit cell:	Completed after 4 iterations at t[s]:  13145.95
	Linear fluid (dielectric constant: 78.4, screening length: 8.12261 Bohr) occupying 0.712394 of unit cell:	Completed after 3 iterations at t[s]:  13184.53
	FillingsUpdate:  mu: -0.144177547  nElectrons: 226.000000  magneticMoment: [ Abs: 1.83863  Tot: -1.63408 ]
	SubspaceRotationAdjust: set factor to 0.659
ElecMinimize: Iter:   7  F: -388.663678925335603  |grad|_K:  4.629e-07  alpha:  4.708e-01  linmin: -9.741e-07  t[s]:  13235.90
	Linear fluid (dielectric constant: 78.4, screening length: 8.12261 Bohr) occupying 0.712391 of unit cell:	Completed after 8 iterations at t[s]:  13283.84
	Linear fluid (dielectric constant: 78.4, screening length: 8.12261 Bohr) occupying 0.712392 of unit cell:	Completed after 5 iterations at t[s]:  13323.80
	FillingsUpdate:  mu: -0.143456373  nElectrons: 226.000000  magneticMoment: [ Abs: 1.84230  Tot: -1.63942 ]
	SubspaceRotationAdjust: set factor to 0.502
ElecMinimize: Iter:   8  F: -388.663690904448686  |grad|_K:  2.489e-07  alpha:  2.612e-01  linmin:  8.596e-07  t[s]:  13375.16
	Linear fluid (dielectric constant: 78.4, screening length: 8.12261 Bohr) occupying 0.712386 of unit cell:	Completed after 2 iterations at t[s]:  13419.13
	Linear fluid (dielectric constant: 78.4, screening length: 8.12261 Bohr) occupying 0.712380 of unit cell:	Completed after 3 iterations at t[s]:  13457.65
	FillingsUpdate:  mu: -0.143357633  nElectrons: 226.000000  magneticMoment: [ Abs: 1.84324  Tot: -1.64098 ]
	SubspaceRotationAdjust: set factor to 0.611
ElecMinimize: Iter:   9  F: -388.663697979512506  |grad|_K:  1.673e-07  alpha:  5.416e-01  linmin:  1.835e-06  t[s]:  13509.71
	Linear fluid (dielectric constant: 78.4, screening length: 8.12261 Bohr) occupying 0.712369 of unit cell:	Completed after 4 iterations at t[s]:  13554.95
	Linear fluid (dielectric constant: 78.4, screening length: 8.12261 Bohr) occupying 0.712372 of unit cell:	Completed after 2 iterations at t[s]:  13592.90
	FillingsUpdate:  mu: -0.143683807  nElectrons: 226.000000  magneticMoment: [ Abs: 1.84142  Tot: -1.63859 ]
	SubspaceRotationAdjust: set factor to 0.528
ElecMinimize: Iter:  10  F: -388.663700278996828  |grad|_K:  1.413e-07  alpha:  3.911e-01  linmin:  5.409e-05  t[s]:  13644.08
	Linear fluid (dielectric constant: 78.4, screening length: 8.12261 Bohr) occupying 0.712368 of unit cell:	Completed after 2 iterations at t[s]:  13688.03
	Linear fluid (dielectric constant: 78.4, screening length: 8.12261 Bohr) occupying 0.712367 of unit cell:	Completed after 0 iterations at t[s]:  13724.68
	FillingsUpdate:  mu: -0.143620859  nElectrons: 226.000000  magneticMoment: [ Abs: 1.84089  Tot: -1.63799 ]
	SubspaceRotationAdjust: set factor to 0.649
ElecMinimize: Iter:  11  F: -388.663702228107468  |grad|_K:  8.130e-08  alpha:  4.631e-01  linmin: -5.478e-05  t[s]:  13775.87
	Linear fluid (dielectric constant: 78.4, screening length: 8.12261 Bohr) occupying 0.712367 of unit cell:	Completed after 2 iterations at t[s]:  13819.90
	Linear fluid (dielectric constant: 78.4, screening length: 8.12261 Bohr) occupying 0.712367 of unit cell:	Completed after 0 iterations at t[s]:  13855.81
	FillingsUpdate:  mu: -0.143491468  nElectrons: 226.000000  magneticMoment: [ Abs: 1.84148  Tot: -1.63885 ]
	SubspaceRotationAdjust: set factor to 0.632
ElecMinimize: Iter:  12  F: -388.663702960756268  |grad|_K:  8.161e-08  alpha:  4.919e-01  linmin: -4.034e-05  t[s]:  13906.89
	Linear fluid (dielectric constant: 78.4, screening length: 8.12261 Bohr) occupying 0.712368 of unit cell:	Completed after 3 iterations at t[s]:  13951.53
	Linear fluid (dielectric constant: 78.4, screening length: 8.12261 Bohr) occupying 0.712368 of unit cell:	Completed after 1 iterations at t[s]:  13988.76
	FillingsUpdate:  mu: -0.143556136  nElectrons: 226.000000  magneticMoment: [ Abs: 1.84131  Tot: -1.63865 ]
	SubspaceRotationAdjust: set factor to 0.578
ElecMinimize: Iter:  13  F: -388.663703450397065  |grad|_K:  5.673e-08  alpha:  3.123e-01  linmin:  1.565e-05  t[s]:  14040.73
	Linear fluid (dielectric constant: 78.4, screening length: 8.12261 Bohr) occupying 0.712368 of unit cell:	Completed after 1 iterations at t[s]:  14084.71
	Linear fluid (dielectric constant: 78.4, screening length: 8.12261 Bohr) occupying 0.712368 of unit cell:	Completed after 2 iterations at t[s]:  14122.90
	FillingsUpdate:  mu: -0.143605645  nElectrons: 226.000000  magneticMoment: [ Abs: 1.84067  Tot: -1.63778 ]
	SubspaceRotationAdjust: set factor to 0.655
ElecMinimize: Iter:  14  F: -388.663703744765087  |grad|_K:  4.248e-08  alpha:  5.017e-01  linmin:  1.541e-05  t[s]:  14174.74
	Linear fluid (dielectric constant: 78.4, screening length: 8.12261 Bohr) occupying 0.712369 of unit cell:	Completed after 0 iterations at t[s]:  14218.27
	Linear fluid (dielectric constant: 78.4, screening length: 8.12261 Bohr) occupying 0.712369 of unit cell:	Completed after 0 iterations at t[s]:  14255.70
	FillingsUpdate:  mu: -0.143541059  nElectrons: 226.000000  magneticMoment: [ Abs: 1.84063  Tot: -1.63773 ]
	SubspaceRotationAdjust: set factor to 0.511
ElecMinimize: Iter:  15  F: -388.663703879512298  |grad|_K:  4.113e-08  alpha:  3.639e-01  linmin:  6.436e-05  t[s]:  14307.38
	Linear fluid (dielectric constant: 78.4, screening length: 8.12261 Bohr) occupying 0.712370 of unit cell:	Completed after 0 iterations at t[s]:  14349.89
	Linear fluid (dielectric constant: 78.4, screening length: 8.12261 Bohr) occupying 0.712371 of unit cell:	Completed after 1 iterations at t[s]:  14387.43
	FillingsUpdate:  mu: -0.143576745  nElectrons: 226.000000  magneticMoment: [ Abs: 1.84026  Tot: -1.63724 ]
	SubspaceRotationAdjust: set factor to 0.537
ElecMinimize: Iter:  16  F: -388.663703980177331  |grad|_K:  2.674e-08  alpha:  5.156e-01  linmin:  1.944e-04  t[s]:  14439.44
	Linear fluid (dielectric constant: 78.4, screening length: 8.12261 Bohr) occupying 0.712372 of unit cell:	Completed after 0 iterations at t[s]:  14482.48
	Linear fluid (dielectric constant: 78.4, screening length: 8.12261 Bohr) occupying 0.712372 of unit cell:	Completed after 1 iterations at t[s]:  14520.07
	FillingsUpdate:  mu: -0.143561404  nElectrons: 226.000000  magneticMoment: [ Abs: 1.84031  Tot: -1.63735 ]
	SubspaceRotationAdjust: set factor to 0.577
ElecMinimize: Iter:  17  F: -388.663704033512658  |grad|_K:  2.096e-08  alpha:  7.272e-01  linmin:  1.685e-04  t[s]:  14571.73
	Linear fluid (dielectric constant: 78.4, screening length: 8.12261 Bohr) occupying 0.712374 of unit cell:	Completed after 0 iterations at t[s]:  14614.04
	Linear fluid (dielectric constant: 78.4, screening length: 8.12261 Bohr) occupying 0.712373 of unit cell:	Completed after 0 iterations at t[s]:  14650.35
	FillingsUpdate:  mu: -0.143562578  nElectrons: 226.000000  magneticMoment: [ Abs: 1.84035  Tot: -1.63742 ]
	SubspaceRotationAdjust: set factor to 0.699
ElecMinimize: Iter:  18  F: -388.663704078131502  |grad|_K:  1.487e-08  alpha:  5.906e-01  linmin:  4.150e-07  t[s]:  14702.00
ElecMinimize: Converged (|Delta F|<1.000000e-07 for 2 iters).
Setting wave functions to eigenvectors of Hamiltonian
Converging empty states (this may take a while): |deigs|: 4.353e-04
Single-point solvation energy estimate, DeltaF = +0.000717369220183

Computing DFT-D3 correction:
# coordination-number C 3.303 3.324 3.336 3.333 3.313 3.291 3.324 3.562 3.330 3.314 3.305 3.333 3.304 3.302 3.324 3.649 3.265 3.302 3.320 3.335 3.328 3.306 3.304 3.330 3.336 3.320 3.301 3.268 3.557 3.324 3.303 3.308 3.319 3.303 3.314 3.328 3.641 3.327 3.290 3.314 3.333 3.335 3.324 3.304 2.005
# coordination-number N 3.174 3.180 3.177 3.183
# coordination-number Ti 6.558
# coordination-number O 1.027 1.986
# coordination-number H 0.994 0.993
# diagonal-C6 C 24.26 24.04 23.91 23.94 24.15 24.36 24.04 20.76 23.98 24.14 24.24 23.95 24.24 24.27 24.04 19.74 24.59 24.26 24.08 23.92 23.99 24.22 24.24 23.98 23.91 24.08 24.27 24.56 20.83 24.04 24.26 24.21 24.09 24.25 24.14 23.99 19.82 24.00 24.37 24.14 23.94 23.92 24.04 24.25 29.48
# diagonal-C6 N 15.60 15.60 15.60 15.60
# diagonal-C6 Ti 321.59
# diagonal-C6 O 12.79 10.41
# diagonal-C6 H 3.09 3.09
EvdW_6 =   -0.042809
EvdW_8 =   -0.032899
Completed 1 of 16 configurations.

Computing DFT-D3 correction:
# coordination-number C 3.303 3.324 3.336 3.333 3.313 3.291 3.324 3.562 3.330 3.314 3.305 3.333 3.304 3.302 3.324 3.649 3.265 3.302 3.320 3.335 3.328 3.306 3.304 3.330 3.336 3.320 3.301 3.268 3.557 3.324 3.303 3.308 3.319 3.303 3.314 3.328 3.641 3.327 3.290 3.314 3.333 3.335 3.324 3.304 2.005
# coordination-number N 3.174 3.180 3.177 3.183
# coordination-number Ti 6.558
# coordination-number O 1.027 1.986
# coordination-number H 0.994 0.993
# diagonal-C6 C 24.26 24.04 23.91 23.94 24.15 24.36 24.04 20.76 23.98 24.14 24.24 23.95 24.24 24.27 24.04 19.74 24.59 24.26 24.08 23.92 23.99 24.22 24.24 23.98 23.91 24.08 24.27 24.56 20.83 24.04 24.26 24.21 24.09 24.25 24.14 23.99 19.82 24.00 24.37 24.14 23.94 23.92 24.04 24.25 29.48
# diagonal-C6 N 15.60 15.60 15.60 15.60
# diagonal-C6 Ti 321.59
# diagonal-C6 O 12.79 10.41
# diagonal-C6 H 3.09 3.09
EvdW_6 =   -0.042809
EvdW_8 =   -0.032900

-------- Electronic minimization -----------
	Linear fluid (dielectric constant: 78.4, screening length: 8.12261 Bohr) occupying 0.712373 of unit cell:	Completed after 5 iterations at t[s]:  15427.39
	FillingsUpdate:  mu: -0.143629087  nElectrons: 226.000000  magneticMoment: [ Abs: 1.84044  Tot: -1.63750 ]
ElecMinimize: Iter:   0  F: -388.663684446228444  |grad|_K:  3.064e-07  alpha:  1.000e+00
	Linear fluid (dielectric constant: 78.4, screening length: 8.12261 Bohr) occupying 0.712373 of unit cell:	Completed after 3 iterations at t[s]:  15530.62
	Linear fluid (dielectric constant: 78.4, screening length: 8.12261 Bohr) occupying 0.712373 of unit cell:	Completed after 2 iterations at t[s]:  15569.02
	FillingsUpdate:  mu: -0.143679544  nElectrons: 226.000000  magneticMoment: [ Abs: 1.84175  Tot: -1.63953 ]
	SubspaceRotationAdjust: set factor to 0.854
ElecMinimize: Iter:   1  F: -388.663699655796563  |grad|_K:  1.376e-07  alpha:  7.648e-01  linmin:  5.600e-05  t[s]:  15620.83
	Linear fluid (dielectric constant: 78.4, screening length: 8.12261 Bohr) occupying 0.712373 of unit cell:	Completed after 3 iterations at t[s]:  15665.83
	Linear fluid (dielectric constant: 78.4, screening length: 8.12261 Bohr) occupying 0.712373 of unit cell:	Completed after 2 iterations at t[s]:  15704.29
	FillingsUpdate:  mu: -0.143491028  nElectrons: 226.000000  magneticMoment: [ Abs: 1.84259  Tot: -1.64074 ]
	SubspaceRotationAdjust: set factor to 0.685
ElecMinimize: Iter:   2  F: -388.663701398722253  |grad|_K:  1.332e-07  alpha:  4.404e-01  linmin:  2.820e-05  t[s]:  15755.92
	Linear fluid (dielectric constant: 78.4, screening length: 8.12261 Bohr) occupying 0.712372 of unit cell:	Completed after 3 iterations at t[s]:  15800.99
	Linear fluid (dielectric constant: 78.4, screening length: 8.12261 Bohr) occupying 0.712372 of unit cell:	Completed after 3 iterations at t[s]:  15840.00
	FillingsUpdate:  mu: -0.143702059  nElectrons: 226.000000  magneticMoment: [ Abs: 1.84188  Tot: -1.63981 ]
	SubspaceRotationAdjust: set factor to 0.409
ElecMinimize: Iter:   3  F: -388.663702406608991  |grad|_K:  6.233e-08  alpha:  2.742e-01  linmin:  7.107e-05  t[s]:  15891.79
	Linear fluid (dielectric constant: 78.4, screening length: 8.12261 Bohr) occupying 0.712372 of unit cell:	Completed after 1 iterations at t[s]:  15935.53
	Linear fluid (dielectric constant: 78.4, screening length: 8.12261 Bohr) occupying 0.712372 of unit cell:	Completed after 2 iterations at t[s]:  15973.84
	FillingsUpdate:  mu: -0.143628143  nElectrons: 226.000000  magneticMoment: [ Abs: 1.84280  Tot: -1.64112 ]
	SubspaceRotationAdjust: set factor to 0.288
ElecMinimize: Iter:   4  F: -388.663702793097627  |grad|_K:  2.785e-08  alpha:  5.098e-01  linmin:  3.582e-04  t[s]:  16025.90
	Linear fluid (dielectric constant: 78.4, screening length: 8.12261 Bohr) occupying 0.712372 of unit cell:	Completed after 0 iterations at t[s]:  16068.27
	Linear fluid (dielectric constant: 78.4, screening length: 8.12261 Bohr) occupying 0.712372 of unit cell:	Completed after 0 iterations at t[s]:  16104.68
	FillingsUpdate:  mu: -0.143629555  nElectrons: 226.000000  magneticMoment: [ Abs: 1.84293  Tot: -1.64128 ]
	SubspaceRotationAdjust: set factor to 0.361
ElecMinimize: Iter:   5  F: -388.663702914858504  |grad|_K:  1.863e-08  alpha:  7.779e-01  linmin:  1.603e-05  t[s]:  16156.46
	Linear fluid (dielectric constant: 78.4, screening length: 8.12261 Bohr) occupying 0.712373 of unit cell:	Completed after 1 iterations at t[s]:  16200.16
	Linear fluid (dielectric constant: 78.4, screening length: 8.12261 Bohr) occupying 0.712372 of unit cell:	Completed after 0 iterations at t[s]:  16236.53
	FillingsUpdate:  mu: -0.143638352  nElectrons: 226.000000  magneticMoment: [ Abs: 1.84289  Tot: -1.64122 ]
	SubspaceRotationAdjust: set factor to 0.355
ElecMinimize: Iter:   6  F: -388.663702930767613  |grad|_K:  1.822e-08  alpha:  4.298e-01  linmin: -8.504e-04  t[s]:  16288.63
	Linear fluid (dielectric constant: 78.4, screening length: 8.12261 Bohr) occupying 0.712372 of unit cell:	Completed after 0 iterations at t[s]:  16331.06
	Linear fluid (dielectric constant: 78.4, screening length: 8.12261 Bohr) occupying 0.712372 of unit cell:	Completed after 0 iterations at t[s]:  16367.28
	FillingsUpdate:  mu: -0.143637069  nElectrons: 226.000000  magneticMoment: [ Abs: 1.84288  Tot: -1.64119 ]
	SubspaceRotationAdjust: set factor to 0.424
ElecMinimize: Iter:   7  F: -388.663702968945643  |grad|_K:  1.546e-08  alpha:  5.109e-01  linmin: -3.390e-05  t[s]:  16418.92
ElecMinimize: Converged (|Delta F|<1.000000e-07 for 2 iters).
Setting wave functions to eigenvectors of Hamiltonian
Converging empty states (this may take a while): |deigs|: 1.266e-07

Computing DFT-D3 correction:
# coordination-number C 3.303 3.324 3.336 3.333 3.313 3.291 3.324 3.562 3.330 3.314 3.305 3.333 3.304 3.302 3.324 3.649 3.265 3.302 3.320 3.335 3.328 3.306 3.304 3.330 3.336 3.320 3.301 3.268 3.557 3.324 3.303 3.308 3.319 3.303 3.314 3.328 3.641 3.327 3.290 3.314 3.333 3.335 3.324 3.304 2.005
# coordination-number N 3.174 3.180 3.177 3.183
# coordination-number Ti 6.558
# coordination-number O 1.027 1.986
# coordination-number H 0.994 0.993
# diagonal-C6 C 24.26 24.04 23.91 23.94 24.15 24.36 24.04 20.76 23.98 24.14 24.24 23.95 24.24 24.27 24.04 19.74 24.59 24.26 24.08 23.92 23.99 24.22 24.24 23.98 23.91 24.08 24.27 24.56 20.83 24.04 24.26 24.21 24.09 24.25 24.14 23.99 19.82 24.00 24.37 24.14 23.94 23.92 24.04 24.25 29.48
# diagonal-C6 N 15.60 15.60 15.60 15.60
# diagonal-C6 Ti 321.59
# diagonal-C6 O 12.79 10.41
# diagonal-C6 H 3.09 3.09
EvdW_6 =   -0.042809
EvdW_8 =   -0.032900
Completed 2 of 16 configurations.

Computing DFT-D3 correction:
# coordination-number C 3.303 3.324 3.336 3.333 3.313 3.291 3.324 3.562 3.330 3.314 3.305 3.333 3.304 3.302 3.324 3.649 3.265 3.302 3.320 3.335 3.328 3.306 3.304 3.330 3.336 3.320 3.301 3.268 3.557 3.324 3.303 3.308 3.319 3.303 3.314 3.328 3.641 3.327 3.290 3.314 3.333 3.335 3.324 3.304 2.005
# coordination-number N 3.174 3.180 3.177 3.183
# coordination-number Ti 6.558
# coordination-number O 1.027 1.986
# coordination-number H 0.994 0.993
# diagonal-C6 C 24.26 24.04 23.91 23.94 24.15 24.36 24.04 20.76 23.98 24.14 24.24 23.95 24.24 24.27 24.04 19.74 24.59 24.26 24.08 23.92 23.99 24.22 24.24 23.98 23.91 24.08 24.27 24.56 20.83 24.04 24.26 24.21 24.09 24.25 24.14 23.99 19.82 24.00 24.37 24.14 23.94 23.92 24.04 24.25 29.48
# diagonal-C6 N 15.60 15.60 15.60 15.60
# diagonal-C6 Ti 321.59
# diagonal-C6 O 12.79 10.41
# diagonal-C6 H 3.09 3.09
EvdW_6 =   -0.042810
EvdW_8 =   -0.032898

-------- Electronic minimization -----------
	Linear fluid (dielectric constant: 78.4, screening length: 8.12261 Bohr) occupying 0.712365 of unit cell:	Completed after 5 iterations at t[s]:  16635.00
	FillingsUpdate:  mu: -0.143731783  nElectrons: 226.000000  magneticMoment: [ Abs: 1.84298  Tot: -1.64134 ]
ElecMinimize: Iter:   0  F: -388.663664239944183  |grad|_K:  4.189e-07  alpha:  1.000e+00
	Linear fluid (dielectric constant: 78.4, screening length: 8.12261 Bohr) occupying 0.712363 of unit cell:	Completed after 4 iterations at t[s]:  16739.25
[...]
disp C   0.000000000000000   0.000000000000000   0.000000000000000
disp C   0.000000000000000   0.000000000000000   0.000000000000000
disp C   0.000000000000000   0.000000000000000   0.000000000000000
disp C   0.000000000000000   0.000000000000000   0.000000000000000
disp C   0.000000000000000   0.000000000000000   0.000000000000000
disp C  -0.001517462241430  -0.001856896305580   0.003548456322194
disp N   0.000000000000000   0.000000000000000   0.000000000000000
disp N   0.000000000000000   0.000000000000000   0.000000000000000
disp N   0.000000000000000   0.000000000000000   0.000000000000000
disp N   0.000000000000000   0.000000000000000   0.000000000000000
disp Ti   0.000000000000000   0.000000000000000   0.000000000000000
disp O  -0.000480634225051  -0.000749473311984   0.004057677955462
disp O  -0.000315430990430   0.000386711636464   0.001007701464463
disp H  -0.004000608758048   0.000234774543104   0.001280896001127
disp H   0.000743869593196  -0.003250143612652  -0.001691487169079

Real mode 8:
Frequency: 0.007078 Eh [ 1554 cm^-1 ]
Degeneracy: 1 of 1
IR intensity: 0.1303 e^2/amu [ 127.0 km/mol ]
Displacements:
disp C   0.000000000000000   0.000000000000000   0.000000000000000
disp C   0.000000000000000   0.000000000000000   0.000000000000000
disp C   0.000000000000000   0.000000000000000   0.000000000000000
disp C   0.000000000000000   0.000000000000000   0.000000000000000
disp C   0.000000000000000   0.000000000000000   0.000000000000000
disp C   0.000000000000000   0.000000000000000   0.000000000000000
disp C   0.000000000000000   0.000000000000000   0.000000000000000
disp C   0.000000000000000   0.000000000000000   0.000000000000000
disp C   0.000000000000000   0.000000000000000   0.000000000000000
disp C   0.000000000000000   0.000000000000000   0.000000000000000
disp C   0.000000000000000   0.000000000000000   0.000000000000000
disp C   0.000000000000000   0.000000000000000   0.000000000000000
disp C   0.000000000000000   0.000000000000000   0.000000000000000
disp C   0.000000000000000   0.000000000000000   0.000000000000000
disp C   0.000000000000000   0.000000000000000   0.000000000000000
disp C   0.000000000000000   0.000000000000000   0.000000000000000
disp C   0.000000000000000   0.000000000000000   0.000000000000000
disp C   0.000000000000000   0.000000000000000   0.000000000000000
disp C   0.000000000000000   0.000000000000000   0.000000000000000
disp C   0.000000000000000   0.000000000000000   0.000000000000000
disp C   0.000000000000000   0.000000000000000   0.000000000000000
disp C   0.000000000000000   0.000000000000000   0.000000000000000
disp C   0.000000000000000   0.000000000000000   0.000000000000000
disp C   0.000000000000000   0.000000000000000   0.000000000000000
disp C   0.000000000000000   0.000000000000000   0.000000000000000
disp C   0.000000000000000   0.000000000000000   0.000000000000000
disp C   0.000000000000000   0.000000000000000   0.000000000000000
disp C   0.000000000000000   0.000000000000000   0.000000000000000
disp C   0.000000000000000   0.000000000000000   0.000000000000000
disp C   0.000000000000000   0.000000000000000   0.000000000000000
disp C   0.000000000000000   0.000000000000000   0.000000000000000
disp C   0.000000000000000   0.000000000000000   0.000000000000000
disp C   0.000000000000000   0.000000000000000   0.000000000000000
disp C   0.000000000000000   0.000000000000000   0.000000000000000
disp C   0.000000000000000   0.000000000000000   0.000000000000000
disp C   0.000000000000000   0.000000000000000   0.000000000000000
disp C   0.000000000000000   0.000000000000000   0.000000000000000
disp C   0.000000000000000   0.000000000000000   0.000000000000000
disp C   0.000000000000000   0.000000000000000   0.000000000000000
disp C   0.000000000000000   0.000000000000000   0.000000000000000
disp C   0.000000000000000   0.000000000000000   0.000000000000000
disp C   0.000000000000000   0.000000000000000   0.000000000000000
disp C   0.000000000000000   0.000000000000000   0.000000000000000
disp C   0.000000000000000   0.000000000000000   0.000000000000000
disp C   0.000026615970734   0.000056440364343  -0.000314193519685
disp N   0.000000000000000   0.000000000000000   0.000000000000000
disp N   0.000000000000000   0.000000000000000   0.000000000000000
disp N   0.000000000000000   0.000000000000000   0.000000000000000
disp N   0.000000000000000   0.000000000000000   0.000000000000000
disp Ti   0.000000000000000   0.000000000000000   0.000000000000000
disp O  -0.000042867007203  -0.000046312052275   0.000238214513131
disp O   0.001364770262025  -0.000977110850187   0.000144612374143
disp H  -0.015657495912868  -0.000836169388699  -0.000043818771820
disp H  -0.004380358427204   0.015229510496105   0.000187923561875

Real mode 9:
Frequency: 0.008218 Eh [ 1804 cm^-1 ]
Degeneracy: 1 of 1
IR intensity: 10.1602 e^2/amu [ 9905.0 km/mol ]
Displacements:
disp C   0.000000000000000   0.000000000000000   0.000000000000000
disp C   0.000000000000000   0.000000000000000   0.000000000000000
disp C   0.000000000000000   0.000000000000000   0.000000000000000
disp C   0.000000000000000   0.000000000000000   0.000000000000000
disp C   0.000000000000000   0.000000000000000   0.000000000000000
disp C   0.000000000000000   0.000000000000000   0.000000000000000
disp C   0.000000000000000   0.000000000000000   0.000000000000000
disp C   0.000000000000000   0.000000000000000   0.000000000000000
disp C   0.000000000000000   0.000000000000000   0.000000000000000
disp C   0.000000000000000   0.000000000000000   0.000000000000000
disp C   0.000000000000000   0.000000000000000   0.000000000000000
disp C   0.000000000000000   0.000000000000000   0.000000000000000
disp C   0.000000000000000   0.000000000000000   0.000000000000000
disp C   0.000000000000000   0.000000000000000   0.000000000000000
disp C   0.000000000000000   0.000000000000000   0.000000000000000
disp C   0.000000000000000   0.000000000000000   0.000000000000000
disp C   0.000000000000000   0.000000000000000   0.000000000000000
disp C   0.000000000000000   0.000000000000000   0.000000000000000
disp C   0.000000000000000   0.000000000000000   0.000000000000000
disp C   0.000000000000000   0.000000000000000   0.000000000000000
disp C   0.000000000000000   0.000000000000000   0.000000000000000
disp C   0.000000000000000   0.000000000000000   0.000000000000000
disp C   0.000000000000000   0.000000000000000   0.000000000000000
disp C   0.000000000000000   0.000000000000000   0.000000000000000
disp C   0.000000000000000   0.000000000000000   0.000000000000000
disp C   0.000000000000000   0.000000000000000   0.000000000000000
disp C   0.000000000000000   0.000000000000000   0.000000000000000
disp C   0.000000000000000   0.000000000000000   0.000000000000000
disp C   0.000000000000000   0.000000000000000   0.000000000000000
disp C   0.000000000000000   0.000000000000000   0.000000000000000
disp C   0.000000000000000   0.000000000000000   0.000000000000000
disp C   0.000000000000000   0.000000000000000   0.000000000000000
disp C   0.000000000000000   0.000000000000000   0.000000000000000
disp C   0.000000000000000   0.000000000000000   0.000000000000000
disp C   0.000000000000000   0.000000000000000   0.000000000000000
disp C   0.000000000000000   0.000000000000000   0.000000000000000
disp C   0.000000000000000   0.000000000000000   0.000000000000000
disp C   0.000000000000000   0.000000000000000   0.000000000000000
disp C   0.000000000000000   0.000000000000000   0.000000000000000
disp C   0.000000000000000   0.000000000000000   0.000000000000000
disp C   0.000000000000000   0.000000000000000   0.000000000000000
disp C   0.000000000000000   0.000000000000000   0.000000000000000
disp C   0.000000000000000   0.000000000000000   0.000000000000000
disp C   0.000000000000000   0.000000000000000   0.000000000000000
disp C  -0.000491854262957  -0.001077472871679   0.005034542666715
disp N   0.000000000000000   0.000000000000000   0.000000000000000
disp N   0.000000000000000   0.000000000000000   0.000000000000000
disp N   0.000000000000000   0.000000000000000   0.000000000000000
disp N   0.000000000000000   0.000000000000000   0.000000000000000
disp Ti   0.000000000000000   0.000000000000000   0.000000000000000
disp O   0.000409031722236   0.000796196470672  -0.003641697814726
disp O   0.000074705077966  -0.000042431650976   0.000006310508272
disp H  -0.001200714975855  -0.000111294604816  -0.000042795323006
disp H  -0.000227157497606   0.000800783795116  -0.000066877107004

Real mode 10:
Frequency: 0.017183 Eh [ 3771 cm^-1 ]
Degeneracy: 1 of 1
IR intensity: 0.0322 e^2/amu [ 31.4 km/mol ]
Displacements:
disp C   0.000000000000000   0.000000000000000   0.000000000000000
disp C   0.000000000000000   0.000000000000000   0.000000000000000
disp C   0.000000000000000   0.000000000000000   0.000000000000000
disp C   0.000000000000000   0.000000000000000   0.000000000000000
disp C   0.000000000000000   0.000000000000000   0.000000000000000
disp C   0.000000000000000   0.000000000000000   0.000000000000000
disp C   0.000000000000000   0.000000000000000   0.000000000000000
disp C   0.000000000000000   0.000000000000000   0.000000000000000
disp C   0.000000000000000   0.000000000000000   0.000000000000000
disp C   0.000000000000000   0.000000000000000   0.000000000000000
disp C   0.000000000000000   0.000000000000000   0.000000000000000
disp C   0.000000000000000   0.000000000000000   0.000000000000000
disp C   0.000000000000000   0.000000000000000   0.000000000000000
disp C   0.000000000000000   0.000000000000000   0.000000000000000
disp C   0.000000000000000   0.000000000000000   0.000000000000000
disp C   0.000000000000000   0.000000000000000   0.000000000000000
disp C   0.000000000000000   0.000000000000000   0.000000000000000
disp C   0.000000000000000   0.000000000000000   0.000000000000000
disp C   0.000000000000000   0.000000000000000   0.000000000000000
disp C   0.000000000000000   0.000000000000000   0.000000000000000
disp C   0.000000000000000   0.000000000000000   0.000000000000000
disp C   0.000000000000000   0.000000000000000   0.000000000000000
disp C   0.000000000000000   0.000000000000000   0.000000000000000
disp C   0.000000000000000   0.000000000000000   0.000000000000000
disp C   0.000000000000000   0.000000000000000   0.000000000000000
disp C   0.000000000000000   0.000000000000000   0.000000000000000
disp C   0.000000000000000   0.000000000000000   0.000000000000000
disp C   0.000000000000000   0.000000000000000   0.000000000000000
disp C   0.000000000000000   0.000000000000000   0.000000000000000
disp C   0.000000000000000   0.000000000000000   0.000000000000000
disp C   0.000000000000000   0.000000000000000   0.000000000000000
disp C   0.000000000000000   0.000000000000000   0.000000000000000
disp C   0.000000000000000   0.000000000000000   0.000000000000000
disp C   0.000000000000000   0.000000000000000   0.000000000000000
disp C   0.000000000000000   0.000000000000000   0.000000000000000
disp C   0.000000000000000   0.000000000000000   0.000000000000000
disp C   0.000000000000000   0.000000000000000   0.000000000000000
disp C   0.000000000000000   0.000000000000000   0.000000000000000
disp C   0.000000000000000   0.000000000000000   0.000000000000000
disp C   0.000000000000000   0.000000000000000   0.000000000000000
disp C   0.000000000000000   0.000000000000000   0.000000000000000
disp C   0.000000000000000   0.000000000000000   0.000000000000000
disp C   0.000000000000000   0.000000000000000   0.000000000000000
disp C   0.000000000000000   0.000000000000000   0.000000000000000
disp C  -0.000006840267385   0.000000129727779   0.000011534002497
disp N   0.000000000000000   0.000000000000000   0.000000000000000
disp N   0.000000000000000   0.000000000000000   0.000000000000000
disp N   0.000000000000000   0.000000000000000   0.000000000000000
disp N   0.000000000000000   0.000000000000000   0.000000000000000
disp Ti   0.000000000000000   0.000000000000000   0.000000000000000
disp O  -0.000002441761252   0.000002965271577  -0.000011654671468
disp O   0.000756747477791  -0.000981000781547  -0.000044692199117
disp H  -0.000070828823624   0.019134203568904   0.000373392929195
disp H  -0.011578201050415  -0.004416500408233   0.000183862014650

Real mode 11:
Frequency: 0.017688 Eh [ 3882 cm^-1 ]
Degeneracy: 1 of 1
IR intensity: 0.1685 e^2/amu [ 164.2 km/mol ]
Displacements:
disp C   0.000000000000000   0.000000000000000   0.000000000000000
disp C   0.000000000000000   0.000000000000000   0.000000000000000
disp C   0.000000000000000   0.000000000000000   0.000000000000000
disp C   0.000000000000000   0.000000000000000   0.000000000000000
disp C   0.000000000000000   0.000000000000000   0.000000000000000
disp C   0.000000000000000   0.000000000000000   0.000000000000000
disp C   0.000000000000000   0.000000000000000   0.000000000000000
disp C   0.000000000000000   0.000000000000000   0.000000000000000
disp C   0.000000000000000   0.000000000000000   0.000000000000000
disp C   0.000000000000000   0.000000000000000   0.000000000000000
disp C   0.000000000000000   0.000000000000000   0.000000000000000
disp C   0.000000000000000   0.000000000000000   0.000000000000000
disp C   0.000000000000000   0.000000000000000   0.000000000000000
disp C   0.000000000000000   0.000000000000000   0.000000000000000
disp C   0.000000000000000   0.000000000000000   0.000000000000000
disp C   0.000000000000000   0.000000000000000   0.000000000000000
disp C   0.000000000000000   0.000000000000000   0.000000000000000
disp C   0.000000000000000   0.000000000000000   0.000000000000000
disp C   0.000000000000000   0.000000000000000   0.000000000000000
disp C   0.000000000000000   0.000000000000000   0.000000000000000
disp C   0.000000000000000   0.000000000000000   0.000000000000000
disp C   0.000000000000000   0.000000000000000   0.000000000000000
disp C   0.000000000000000   0.000000000000000   0.000000000000000
disp C   0.000000000000000   0.000000000000000   0.000000000000000
disp C   0.000000000000000   0.000000000000000   0.000000000000000
disp C   0.000000000000000   0.000000000000000   0.000000000000000
disp C   0.000000000000000   0.000000000000000   0.000000000000000
disp C   0.000000000000000   0.000000000000000   0.000000000000000
disp C   0.000000000000000   0.000000000000000   0.000000000000000
disp C   0.000000000000000   0.000000000000000   0.000000000000000
disp C   0.000000000000000   0.000000000000000   0.000000000000000
disp C   0.000000000000000   0.000000000000000   0.000000000000000
disp C   0.000000000000000   0.000000000000000   0.000000000000000
disp C   0.000000000000000   0.000000000000000   0.000000000000000
disp C   0.000000000000000   0.000000000000000   0.000000000000000
disp C   0.000000000000000   0.000000000000000   0.000000000000000
disp C   0.000000000000000   0.000000000000000   0.000000000000000
disp C   0.000000000000000   0.000000000000000   0.000000000000000
disp C   0.000000000000000   0.000000000000000   0.000000000000000
disp C   0.000000000000000   0.000000000000000   0.000000000000000
disp C   0.000000000000000   0.000000000000000   0.000000000000000
disp C   0.000000000000000   0.000000000000000   0.000000000000000
disp C   0.000000000000000   0.000000000000000   0.000000000000000
disp C   0.000000000000000   0.000000000000000   0.000000000000000
disp C  -0.000003532543059   0.000002699132643  -0.000002928705142
disp N   0.000000000000000   0.000000000000000   0.000000000000000
disp N   0.000000000000000   0.000000000000000   0.000000000000000
disp N   0.000000000000000   0.000000000000000   0.000000000000000
disp N   0.000000000000000   0.000000000000000   0.000000000000000
disp Ti   0.000000000000000   0.000000000000000   0.000000000000000
disp O  -0.000002754789176  -0.000004029525378   0.000007540765934
disp O   0.001081188102174   0.001130001859566  -0.000017574940643
disp H   0.000675657936374  -0.012021588706869  -0.000240188412513
disp H  -0.018144668526870  -0.005575774472973   0.000276999910692

Vibrational free energy components at T = 298 K:
	ZPE:          0.029164
	Evib:         0.032622
	TSvib:        0.006356
	Avib:         0.026266


Dumping 'jdft.n_up' ... done
Dumping 'jdft.n_dn' ... done
Dumping 'jdft.tau_up' ... done
Dumping 'jdft.tau_dn' ... done
Dumping 'jdft.eigenvals' ... done
Dumping 'jdft.eigStats' ... 
	eMin: -2.265829 at state 11 ( [ +0.000000 -0.333333 +0.000000 ] spin -1 )
	HOMO: -0.145032 at state 4 ( [ +0.333333 +0.333333 +0.000000 ] spin 1 )
	mu  : -0.143536
	LUMO: -0.143308 at state 11 ( [ +0.000000 -0.333333 +0.000000 ] spin -1 )
	eMax: +0.021437 at state 0 ( [ +0.000000 +0.000000 +0.000000 ] spin 1 )
	HOMO-LUMO gap: +0.001724
	Optical gap  : +0.010526 at state 17 ( [ -0.333333 -0.333333 +0.000000 ] spin -1 )
Dumping 'jdft.kPts' ... done
Dumping 'jdft.dosUp' ... done.
Dumping 'jdft.dosDn' ... done.
End date and time: Wed Nov  9 22:09:40 2022  (Duration: 0-9:00:47.53)
Done!

PROFILER:             augmentDensityGrid     0.662536 +/-     0.870628 s, 2395 calls,   1586.773990 s total
PROFILER:         augmentDensityGridGrad     0.438570 +/-     0.543669 s, 1320 calls,    578.912829 s total
PROFILER:        augmentDensitySpherical     0.000352 +/-     0.000496 s, 2395 calls,      0.841917 s total
PROFILER:    augmentDensitySphericalGrad     0.000346 +/-     0.000519 s, 1850 calls,      0.639292 s total
PROFILER:                 augmentOverlap     1.303292 +/-     1.989490 s, 5165 calls,   6731.500711 s total
PROFILER:        ColumnBundle::randomize     0.004759 +/-     0.000000 s,    1 calls,      0.004759 s total
PROFILER:                     diagouterI    14.937106 +/-     2.912405 s,  482 calls,   7199.685325 s total
PROFILER:              EdensityAndVscloc     5.226123 +/-     4.237770 s,  480 calls,   2508.539184 s total
PROFILER:                     EnlAndGrad     0.001055 +/-     0.001713 s, 2670 calls,      2.816291 s total
PROFILER:            ExCorrCommunication     0.059033 +/-     0.059579 s, 3058 calls,    180.522542 s total
PROFILER:               ExCorrFunctional     0.023904 +/-     0.004780 s,  529 calls,     12.645135 s total
PROFILER:                    ExCorrTotal     0.599192 +/-     0.117621 s,  529 calls,    316.972633 s total
PROFILER:                   Idag_DiagV_I    24.361418 +/-    11.388481 s,  354 calls,   8623.942028 s total
PROFILER:                    initWeights     1.788331 +/-     0.000000 s,    1 calls,      1.788331 s total
PROFILER:                    inv(matrix)     0.001856 +/-     0.000958 s,  410 calls,      0.761067 s total
PROFILER:            matrix::diagonalize     0.007733 +/-     0.004986 s,  809 calls,      6.255836 s total
PROFILER:                    matrix::set     0.000002 +/-     0.000003 s, 49610 calls,      0.113222 s total
PROFILER:            orthoMatrix(matrix)     0.001408 +/-     0.000778 s,  501 calls,      0.705210 s total
PROFILER:     RadialFunctionR::transform     0.004661 +/-     0.026992 s,  151 calls,      0.703773 s total
PROFILER:                    reduceKmesh     0.000000 +/-     0.000000 s,    1 calls,      0.000000 s total
PROFILER:   VanDerWaalsD3::energyAndGrad     0.032458 +/-     0.001154 s,   33 calls,      1.071125 s total
PROFILER:               WavefunctionDrag    26.090057 +/-     1.143333 s,   16 calls,    417.440916 s total
PROFILER:                            Y*M     0.596769 +/-     0.792346 s, 9051 calls,   5401.356571 s total
PROFILER:                          Y1^Y2     0.600037 +/-     0.807766 s, 6688 calls,   4013.048927 s total

MEMUSAGE:                   ColumnBundle     1.340214 GB
MEMUSAGE:        complexScalarFieldTilde     0.049438 GB
MEMUSAGE:                    IndexArrays     0.023178 GB
MEMUSAGE:                         matrix     0.020735 GB
MEMUSAGE:                           misc     0.051230 GB
MEMUSAGE:                    ScalarField     0.395508 GB
MEMUSAGE:               ScalarFieldTilde     0.262436 GB
MEMUSAGE:                          Total     1.657328 GB
