
*************** JDFTx 1.7.0 (git hash 5f12716a) ***************

Start date and time: Tue Mar 14 13:32:58 2023
Executable /home/nisi6161/jdftx_alpine/build/jdftx with command-line: -i in
Running on hosts (process indices):  c3cpu-a9-u1-3.rc.int.colorado.edu (0-17)
Divided in process groups (process indices):  0 (0)  1 (1)  2 (2)  3 (3)  4 (4)  5 (5)  6 (6)  7 (7)  8 (8)  9 (9)  10 (10)  11 (11)  12 (12)  13 (13)  14 (14)  15 (15)  16 (16)  17 (17)
Resource initialization completed at t[s]:      0.00
Run totals: 18 processes, 64 threads, 0 GPUs


Input parsed successfully to the following command list (including defaults):

basis kpoint-dependent
converge-empty-states yes
coords-type Cartesian
core-overlap-check none
coulomb-interaction Periodic
davidson-band-ratio 1.1
density-of-states Etol 1.000000e-06 Esigma 1.000000e-03 \
		Complete \
	Total \
	OrthoOrbital C 1   s \
	OrthoOrbital C 1   p \
	OrthoOrbital C 1   px \
	OrthoOrbital C 1   py \
	OrthoOrbital C 1   pz \
	OrthoOrbital C 2   s \
	OrthoOrbital C 2   p \
	OrthoOrbital C 2   px \
	OrthoOrbital C 2   py \
	OrthoOrbital C 2   pz \
	OrthoOrbital C 3   s \
	OrthoOrbital C 3   p \
	OrthoOrbital C 3   px \
	OrthoOrbital C 3   py \
	OrthoOrbital C 3   pz \
	OrthoOrbital C 4   s \
	OrthoOrbital C 4   p \
	OrthoOrbital C 4   px \
	OrthoOrbital C 4   py \
	OrthoOrbital C 4   pz \
	OrthoOrbital C 5   s \
	OrthoOrbital C 5   p \
	OrthoOrbital C 5   px \
	OrthoOrbital C 5   py \
	OrthoOrbital C 5   pz \
	OrthoOrbital C 6   s \
	OrthoOrbital C 6   p \
	OrthoOrbital C 6   px \
	OrthoOrbital C 6   py \
	OrthoOrbital C 6   pz \
	OrthoOrbital C 7   s \
	OrthoOrbital C 7   p \
	OrthoOrbital C 7   px \
	OrthoOrbital C 7   py \
	OrthoOrbital C 7   pz \
	OrthoOrbital C 8   s \
	OrthoOrbital C 8   p \
	OrthoOrbital C 8   px \
	OrthoOrbital C 8   py \
	OrthoOrbital C 8   pz \
	OrthoOrbital C 9   s \
	OrthoOrbital C 9   p \
	OrthoOrbital C 9   px \
	OrthoOrbital C 9   py \
	OrthoOrbital C 9   pz \
	OrthoOrbital C 10   s \
	OrthoOrbital C 10   p \
	OrthoOrbital C 10   px \
	OrthoOrbital C 10   py \
	OrthoOrbital C 10   pz \
	OrthoOrbital C 11   s \
	OrthoOrbital C 11   p \
	OrthoOrbital C 11   px \
	OrthoOrbital C 11   py \
	OrthoOrbital C 11   pz \
	OrthoOrbital C 12   s \
	OrthoOrbital C 12   p \
	OrthoOrbital C 12   px \
	OrthoOrbital C 12   py \
	OrthoOrbital C 12   pz \
	OrthoOrbital C 13   s \
	OrthoOrbital C 13   p \
	OrthoOrbital C 13   px \
	OrthoOrbital C 13   py \
	OrthoOrbital C 13   pz \
	OrthoOrbital C 14   s \
	OrthoOrbital C 14   p \
	OrthoOrbital C 14   px \
	OrthoOrbital C 14   py \
	OrthoOrbital C 14   pz \
	OrthoOrbital C 15   s \
	OrthoOrbital C 15   p \
	OrthoOrbital C 15   px \
	OrthoOrbital C 15   py \
	OrthoOrbital C 15   pz \
	OrthoOrbital C 16   s \
	OrthoOrbital C 16   p \
	OrthoOrbital C 16   px \
	OrthoOrbital C 16   py \
	OrthoOrbital C 16   pz \
	OrthoOrbital C 17   s \
	OrthoOrbital C 17   p \
	OrthoOrbital C 17   px \
	OrthoOrbital C 17   py \
	OrthoOrbital C 17   pz \
	OrthoOrbital C 18   s \
	OrthoOrbital C 18   p \
	OrthoOrbital C 18   px \
	OrthoOrbital C 18   py \
	OrthoOrbital C 18   pz \
	OrthoOrbital C 19   s \
	OrthoOrbital C 19   p \
	OrthoOrbital C 19   px \
	OrthoOrbital C 19   py \
	OrthoOrbital C 19   pz \
	OrthoOrbital C 20   s \
	OrthoOrbital C 20   p \
	OrthoOrbital C 20   px \
	OrthoOrbital C 20   py \
	OrthoOrbital C 20   pz \
	OrthoOrbital C 21   s \
	OrthoOrbital C 21   p \
	OrthoOrbital C 21   px \
	OrthoOrbital C 21   py \
	OrthoOrbital C 21   pz \
	OrthoOrbital C 22   s \
	OrthoOrbital C 22   p \
	OrthoOrbital C 22   px \
	OrthoOrbital C 22   py \
	OrthoOrbital C 22   pz \
	OrthoOrbital C 23   s \
	OrthoOrbital C 23   p \
	OrthoOrbital C 23   px \
	OrthoOrbital C 23   py \
	OrthoOrbital C 23   pz \
	OrthoOrbital C 24   s \
	OrthoOrbital C 24   p \
	OrthoOrbital C 24   px \
	OrthoOrbital C 24   py \
	OrthoOrbital C 24   pz \
	OrthoOrbital C 25   s \
	OrthoOrbital C 25   p \
	OrthoOrbital C 25   px \
	OrthoOrbital C 25   py \
	OrthoOrbital C 25   pz \
	OrthoOrbital C 26   s \
	OrthoOrbital C 26   p \
	OrthoOrbital C 26   px \
	OrthoOrbital C 26   py \
	OrthoOrbital C 26   pz \
	OrthoOrbital C 27   s \
	OrthoOrbital C 27   p \
	OrthoOrbital C 27   px \
	OrthoOrbital C 27   py \
	OrthoOrbital C 27   pz \
	OrthoOrbital C 28   s \
	OrthoOrbital C 28   p \
	OrthoOrbital C 28   px \
	OrthoOrbital C 28   py \
	OrthoOrbital C 28   pz \
	OrthoOrbital C 29   s \
	OrthoOrbital C 29   p \
	OrthoOrbital C 29   px \
	OrthoOrbital C 29   py \
	OrthoOrbital C 29   pz \
	OrthoOrbital C 30   s \
	OrthoOrbital C 30   p \
	OrthoOrbital C 30   px \
	OrthoOrbital C 30   py \
	OrthoOrbital C 30   pz \
	OrthoOrbital C 31   s \
	OrthoOrbital C 31   p \
	OrthoOrbital C 31   px \
	OrthoOrbital C 31   py \
	OrthoOrbital C 31   pz \
	OrthoOrbital C 32   s \
	OrthoOrbital C 32   p \
	OrthoOrbital C 32   px \
	OrthoOrbital C 32   py \
	OrthoOrbital C 32   pz \
	OrthoOrbital C 33   s \
	OrthoOrbital C 33   p \
	OrthoOrbital C 33   px \
	OrthoOrbital C 33   py \
	OrthoOrbital C 33   pz \
	OrthoOrbital C 34   s \
	OrthoOrbital C 34   p \
	OrthoOrbital C 34   px \
	OrthoOrbital C 34   py \
	OrthoOrbital C 34   pz \
	OrthoOrbital C 35   s \
	OrthoOrbital C 35   p \
	OrthoOrbital C 35   px \
	OrthoOrbital C 35   py \
	OrthoOrbital C 35   pz \
	OrthoOrbital C 36   s \
	OrthoOrbital C 36   p \
	OrthoOrbital C 36   px \
	OrthoOrbital C 36   py \
	OrthoOrbital C 36   pz \
	OrthoOrbital C 37   s \
	OrthoOrbital C 37   p \
	OrthoOrbital C 37   px \
	OrthoOrbital C 37   py \
	OrthoOrbital C 37   pz \
	OrthoOrbital C 38   s \
	OrthoOrbital C 38   p \
	OrthoOrbital C 38   px \
	OrthoOrbital C 38   py \
	OrthoOrbital C 38   pz \
	OrthoOrbital C 39   s \
	OrthoOrbital C 39   p \
	OrthoOrbital C 39   px \
	OrthoOrbital C 39   py \
	OrthoOrbital C 39   pz \
	OrthoOrbital C 40   s \
	OrthoOrbital C 40   p \
	OrthoOrbital C 40   px \
	OrthoOrbital C 40   py \
	OrthoOrbital C 40   pz \
	OrthoOrbital C 41   s \
	OrthoOrbital C 41   p \
	OrthoOrbital C 41   px \
	OrthoOrbital C 41   py \
	OrthoOrbital C 41   pz \
	OrthoOrbital C 42   s \
	OrthoOrbital C 42   p \
	OrthoOrbital C 42   px \
	OrthoOrbital C 42   py \
	OrthoOrbital C 42   pz \
	OrthoOrbital C 43   s \
	OrthoOrbital C 43   p \
	OrthoOrbital C 43   px \
	OrthoOrbital C 43   py \
	OrthoOrbital C 43   pz \
	OrthoOrbital C 44   s \
	OrthoOrbital C 44   p \
	OrthoOrbital C 44   px \
	OrthoOrbital C 44   py \
	OrthoOrbital C 44   pz \
	OrthoOrbital C 45   s \
	OrthoOrbital C 45   p \
	OrthoOrbital C 45   px \
	OrthoOrbital C 45   py \
	OrthoOrbital C 45   pz \
	OrthoOrbital N 1   s \
	OrthoOrbital N 1   p \
	OrthoOrbital N 1   px \
	OrthoOrbital N 1   py \
	OrthoOrbital N 1   pz \
	OrthoOrbital N 2   s \
	OrthoOrbital N 2   p \
	OrthoOrbital N 2   px \
	OrthoOrbital N 2   py \
	OrthoOrbital N 2   pz \
	OrthoOrbital N 3   s \
	OrthoOrbital N 3   p \
	OrthoOrbital N 3   px \
	OrthoOrbital N 3   py \
	OrthoOrbital N 3   pz \
	OrthoOrbital N 4   s \
	OrthoOrbital N 4   p \
	OrthoOrbital N 4   px \
	OrthoOrbital N 4   py \
	OrthoOrbital N 4   pz \
	OrthoOrbital Ti 1   s \
	OrthoOrbital Ti 1   p \
	OrthoOrbital Ti 1   px \
	OrthoOrbital Ti 1   py \
	OrthoOrbital Ti 1   pz \
	OrthoOrbital Ti 1   d \
	OrthoOrbital Ti 1   dxy \
	OrthoOrbital Ti 1   dyz \
	OrthoOrbital Ti 1   dz2 \
	OrthoOrbital Ti 1   dxz \
	OrthoOrbital Ti 1   dx2-y2 \
	OrthoOrbital O 1   s \
	OrthoOrbital O 1   p \
	OrthoOrbital O 1   px \
	OrthoOrbital O 1   py \
	OrthoOrbital O 1   pz \
	OrthoOrbital O 2   s \
	OrthoOrbital O 2   p \
	OrthoOrbital O 2   px \
	OrthoOrbital O 2   py \
	OrthoOrbital O 2   pz \
	OrthoOrbital H 1   s
dump End ElecDensity KEdensity BandEigs EigStats RhoAtom DOS Kpoints
dump Ionic State IonicPositions Lattice EigStats Ecomponents
dump 
dump 
dump 
dump 
dump 
dump 
dump 
dump 
dump-name jdft.$VAR
elec-cutoff 20
elec-eigen-algo Davidson
elec-ex-corr gga-PBE
elec-initial-magnetization 0.000000 no
elec-n-bands 135
elec-smearing Fermi 0.001
electronic-minimize  \
	dirUpdateScheme      FletcherReeves \
	linminMethod         DirUpdateRecommended \
	nIterations          100 \
	history              15 \
	knormThreshold       0 \
	energyDiffThreshold  1e-07 \
	nEnergyDiff          2 \
	alphaTstart          1 \
	alphaTmin            1e-10 \
	updateTestStepSize   yes \
	alphaTreduceFactor   0.1 \
	alphaTincreaseFactor 3 \
	nAlphaAdjustMax      3 \
	wolfeEnergy          0.0001 \
	wolfeGradient        0.9 \
	fdTest               no
exchange-regularization WignerSeitzTruncated
fluid LinearPCM 298.000000 1.013250
fluid-anion F- 0.5 MeanFieldLJ \
	epsBulk 1 \
	pMol 0 \
	epsInf 1 \
	Pvap 0 \
	sigmaBulk 0 \
	Rvdw 2.24877 \
	Res 0 \
	tauNuc 343133
fluid-cation Na+ 0.5 MeanFieldLJ \
	epsBulk 1 \
	pMol 0 \
	epsInf 1 \
	Pvap 0 \
	sigmaBulk 0 \
	Rvdw 2.19208 \
	Res 0 \
	tauNuc 343133
fluid-ex-corr lda-TF lda-PZ
fluid-gummel-loop 10 1.000000e-05
fluid-minimize  \
	dirUpdateScheme      PolakRibiere \
	linminMethod         DirUpdateRecommended \
	nIterations          400 \
	history              15 \
	knormThreshold       1e-11 \
	energyDiffThreshold  0 \
	nEnergyDiff          2 \
	alphaTstart          1 \
	alphaTmin            1e-10 \
	updateTestStepSize   yes \
	alphaTreduceFactor   0.1 \
	alphaTincreaseFactor 3 \
	nAlphaAdjustMax      6 \
	wolfeEnergy          0.0001 \
	wolfeGradient        0.9 \
	fdTest               no
fluid-solvent H2O 55.338 ScalarEOS \
	epsBulk 78.4 \
	pMol 0.92466 \
	epsInf 1.77 \
	Pvap 1.06736e-10 \
	sigmaBulk 4.62e-05 \
	Rvdw 2.61727 \
	Res 1.42 \
	tauNuc 343133 \
	poleEl 15 7 1
forces-output-coords Positions
ion C   0.032550000000000   0.018799000000000  43.293384000000003 1
ion C  21.079585999999999   3.976350000000001  43.269809000000009 1
ion C  18.733094000000001   7.979364000000002  43.134719000000004 1
ion C  -7.013334000000002  11.979594000000004  43.121743000000009 1
ion C  -9.340662000000002  15.991521000000002  43.224087000000004 1
ion C   4.715965000000000   0.122169000000000   0.060213000000000 1
ion C   2.325303000000000   4.144980000000001   0.198503000000000 1
ion C  -0.089621000000000   7.963196000000002   0.116403000000000 1
ion C  -2.398569999999999  11.968434000000000  43.197441000000005 1
ion C  -4.692268000000001  15.997045000000004  43.208558000000004 1
ion C   9.407650000000002   0.014106000000000  43.237367000000006 1
ion C   7.121177000000001   4.125918000000001   0.098365000000000 1
ion C   0.002433000000000  15.899160000000002   0.012934000000000 1
ion C   2.379189999999999  19.861369000000003  43.248094000000009 1
ion C  11.792937000000002   3.962856000000001  43.188011000000010 1
ion C   9.506206000000002   7.952289000000002   0.011030000000000 1
ion C   4.702717999999999  15.762334000000003   0.131240000000000 1
ion C   7.029892000000000  19.867913000000005  43.275173000000009 1
ion C  16.436143000000001   3.948385000000000  43.174385000000008 1
ion C  14.128704000000001   7.971619000000000  43.112053000000010 1
ion C  11.807406000000004  11.974213000000004  43.197052000000006 1
ion C   9.403112999999999  15.910886000000003   0.020633000000000 1
ion C   0.020235000000000   2.703117000000001   0.076174000000000 1
ion C  -2.388482000000000   6.631966000000000  43.233041000000007 1
ion C  -4.708453000000001  10.630671000000003  43.126587000000008 1
ion C  -7.015518000000004  14.654863000000004  43.179057000000007 1
ion C  -9.339997000000000  18.680279000000002  43.285423999999999 1
ion C   4.717342000000000   2.843706000000001   0.152868000000000 1
ion C  -0.090031999999999  10.648721000000002   0.080976000000000 1
ion C  -2.371854000000001  14.639256000000003  43.219415000000005 1
ion C  -4.690535000000001  18.682392000000004  43.255967000000005 1
ion C   9.422056000000001   2.693777000000000  -0.017995000000000 1
ion C   2.304838999999999  14.461752000000002   0.140237000000000 1
ion C   0.016895999999997  18.579848000000005  43.241043000000005 1
ion C  14.114101000000002   2.606064000000000  43.192596000000009 1
ion C  11.819853000000002   6.633338000000001  43.164004000000006 1
ion C   9.499628000000001  10.642438000000004   0.033653000000000 1
ion C   7.098526999999999  14.480436000000003   0.116706000000000 1
ion C   4.703886000000001  18.483113000000003   0.044857000000000 1
ion C  18.763055999999999   2.613105000000000  43.232219000000008 1
ion C  16.432974999999999   6.623892000000001  43.119190000000010 1
ion C  14.121800000000000  10.643034000000002  43.122694000000010 1
ion C  11.777956000000003  14.646409000000002  43.231527000000007 1
ion C   9.392882999999999  18.594608000000004  43.277725000000011 1
ion C   4.460572000000001  10.091676000000001   5.579459000000001 1
ion N   2.190125999999999  11.874178000000002   0.276148000000000 1
ion N   7.212478999999999  11.882203000000002   0.224370000000000 1
ion N   2.199971000000001   6.747054000000000   0.350160000000000 1
ion N   7.233620000000001   6.709142000000001   0.182758000000000 1
ion Ti   4.790729000000000   9.316000000000003   1.752097000000000 1
ion O   3.982481000000001  10.811694000000003   7.920620000000001 1
ion O   6.212945999999999   8.464373000000000   5.252138000000001 1
ion H   2.591195999999999  12.065635000000002   7.919885000000001 1
ion-species /projects/musgravc/apps/jdftx-1.6.0/build/pseudopotentials/GBRV_v1.5/$ID_pbe_v1.uspp
ion-species /projects/musgravc/apps/jdftx-1.6.0/build/pseudopotentials/GBRV_v1.5/$ID_pbe_v1.2.uspp
ion-species /projects/musgravc/apps/jdftx-1.6.0/build/pseudopotentials/GBRV_v1.5/$ID_pbe_v1.4.uspp
ion-species /projects/musgravc/apps/jdftx-1.6.0/build/pseudopotentials/GBRV_v1.5/$ID_pbe_v1.5.uspp
ion-width Ecut
ionic-minimize  \
	dirUpdateScheme      L-BFGS \
	linminMethod         DirUpdateRecommended \
	nIterations          0 \
	history              15 \
	knormThreshold       0.0001 \
	energyDiffThreshold  1e-06 \
	nEnergyDiff          2 \
	alphaTstart          1 \
	alphaTmin            1e-10 \
	updateTestStepSize   yes \
	alphaTreduceFactor   0.1 \
	alphaTincreaseFactor 3 \
	nAlphaAdjustMax      3 \
	wolfeEnergy          0.0001 \
	wolfeGradient        0.9 \
	fdTest               no
kpoint   0.000000000000   0.000000000000   0.000000000000  1.00000000000000
kpoint-folding 3 3 1 
latt-move-scale 0 0 0
latt-scale 1 1 1 
lattice  \
	  23.436261999999999  -11.733459000000000    0.000000000000000  \
	   0.017994000000000   19.941849000000001    0.000000000000000  \
	   0.000000000000000    0.000000000000000   43.256312999999999 
lattice-minimize  \
	dirUpdateScheme      L-BFGS \
	linminMethod         DirUpdateRecommended \
	nIterations          0 \
	history              15 \
	knormThreshold       0 \
	energyDiffThreshold  1e-06 \
	nEnergyDiff          2 \
	alphaTstart          1 \
	alphaTmin            1e-10 \
	updateTestStepSize   yes \
	alphaTreduceFactor   0.1 \
	alphaTincreaseFactor 3 \
	nAlphaAdjustMax      3 \
	wolfeEnergy          0.0001 \
	wolfeGradient        0.9 \
	fdTest               no
lcao-params 30 1e-06 0.001
pcm-variant CANDLE
spintype z-spin
subspace-rotation-factor 1 yes
symmetries none
symmetry-threshold 0.0001
van-der-waals D3


Applied RMS atom displacement 0 bohrs to make symmetries exact.

---------- Initializing the Grid ----------
R = 
[      23.4363     -11.7335            0  ]
[     0.017994      19.9418            0  ]
[            0            0      43.2563  ]
unit cell volume = 20225.5
G =
[   0.267976   0.157673         -0  ]
[ -0.000241801   0.314933          0  ]
[          0         -0   0.145255  ]
Minimum fftbox size, Smin = [  96  96  176  ]
Chosen fftbox size, S = [  96  96  180  ]

---------- Exchange Correlation functional ----------
Initalized PBE GGA exchange.
Initalized PBE GGA correlation.

---------- Setting up pseudopotentials ----------
Width of ionic core gaussian charges (only for fluid interactions / plotting) set to 0.397384

Reading pseudopotential file '/projects/musgravc/apps/jdftx-1.6.0/build/pseudopotentials/GBRV_v1.5/c_pbe_v1.2.uspp':
  Title: C.  Created by USPP 7.3.6 on 3-2-2014
  Reference state energy: -5.406344.  4 valence electrons in orbitals:
    |200>  occupation: 2  eigenvalue: -0.504890
    |210>  occupation: 2  eigenvalue: -0.194356
  lMax: 1  lLocal: 2  QijEcut: 5
  4 projectors sampled on a log grid with 503 points:
    l: 0  eig: -0.504890  rCut: 1.3
    l: 0  eig: 0.000000  rCut: 1.3
    l: 1  eig: -0.194357  rCut: 1.3
    l: 1  eig: 0.000000  rCut: 1.3
  Partial core density with radius 1.1
  Transforming core density to a uniform radial grid of dG=0.02 with 1464 points.
  Transforming local potential to a uniform radial grid of dG=0.02 with 1464 points.
  Transforming nonlocal projectors to a uniform radial grid of dG=0.02 with 432 points.
  Transforming density augmentations to a uniform radial grid of dG=0.02 with 1464 points.
  Transforming atomic orbitals to a uniform radial grid of dG=0.02 with 432 points.
  Core radius for overlap checks: 1.30 bohrs.

Reading pseudopotential file '/projects/musgravc/apps/jdftx-1.6.0/build/pseudopotentials/GBRV_v1.5/n_pbe_v1.2.uspp':
  Title: N.  Created by USPP 7.3.6 on 3-2-2014
  Reference state energy: -9.763716.  5 valence electrons in orbitals:
    |200>  occupation: 2  eigenvalue: -0.681964
    |210>  occupation: 3  eigenvalue: -0.260726
  lMax: 1  lLocal: 2  QijEcut: 6
  4 projectors sampled on a log grid with 491 points:
    l: 0  eig: -0.681964  rCut: 1.15
    l: 0  eig: 0.000000  rCut: 1.15
    l: 1  eig: -0.260729  rCut: 1.2
    l: 1  eig: 0.500000  rCut: 1.2
  Partial core density with radius 0.8
  Transforming core density to a uniform radial grid of dG=0.02 with 1464 points.
  Transforming local potential to a uniform radial grid of dG=0.02 with 1464 points.
  Transforming nonlocal projectors to a uniform radial grid of dG=0.02 with 432 points.
  Transforming density augmentations to a uniform radial grid of dG=0.02 with 1464 points.
  Transforming atomic orbitals to a uniform radial grid of dG=0.02 with 432 points.
  Core radius for overlap checks: 1.20 bohrs.

Reading pseudopotential file '/projects/musgravc/apps/jdftx-1.6.0/build/pseudopotentials/GBRV_v1.5/ti_pbe_v1.4.uspp':
  Title: Ti.  Created by USPP 7.3.6 on 31-3-15
  Reference state energy: -59.020943.  12 valence electrons in orbitals:
    |300>  occupation: 2  eigenvalue: -2.777623
    |310>  occupation: 6  eigenvalue: -1.894596
    |400>  occupation: 2  eigenvalue: -0.438610
    |320>  occupation: 1  eigenvalue: -0.583119
  lMax: 2  lLocal: 3  QijEcut: 6
  6 projectors sampled on a log grid with 597 points:
    l: 0  eig: -2.777624  rCut: 1.8
    l: 0  eig: -0.438611  rCut: 1.8
    l: 1  eig: -1.894596  rCut: 1.8
    l: 1  eig: 0.500000  rCut: 1.8
    l: 2  eig: -0.583118  rCut: 1.8
    l: 2  eig: 0.150000  rCut: 1.8
  Partial core density with radius 0.8
  Transforming core density to a uniform radial grid of dG=0.02 with 1464 points.
  Transforming local potential to a uniform radial grid of dG=0.02 with 1464 points.
  Transforming nonlocal projectors to a uniform radial grid of dG=0.02 with 432 points.
  Transforming density augmentations to a uniform radial grid of dG=0.02 with 1464 points.
  Transforming atomic orbitals to a uniform radial grid of dG=0.02 with 432 points.
  Core radius for overlap checks: 1.80 bohrs.

Reading pseudopotential file '/projects/musgravc/apps/jdftx-1.6.0/build/pseudopotentials/GBRV_v1.5/o_pbe_v1.2.uspp':
  Title: O.  Created by USPP 7.3.6 on 3-2-2014
  Reference state energy: -15.894388.  6 valence electrons in orbitals:
    |200>  occupation: 2  eigenvalue: -0.878823
    |210>  occupation: 4  eigenvalue: -0.332131
  lMax: 2  lLocal: 2  QijEcut: 6
  5 projectors sampled on a log grid with 511 points:
    l: 0  eig: -0.878823  rCut: 1.25
    l: 0  eig: 0.000000  rCut: 1.25
    l: 1  eig: -0.332132  rCut: 1.25
    l: 1  eig: 0.000000  rCut: 1.25
    l: 2  eig: 1.000000  rCut: 1.25
  Partial core density with radius 0.7
  Transforming core density to a uniform radial grid of dG=0.02 with 1464 points.
  Transforming local potential to a uniform radial grid of dG=0.02 with 1464 points.
  Transforming nonlocal projectors to a uniform radial grid of dG=0.02 with 432 points.
  Transforming density augmentations to a uniform radial grid of dG=0.02 with 1464 points.
  Transforming atomic orbitals to a uniform radial grid of dG=0.02 with 432 points.
  Core radius for overlap checks: 1.25 bohrs.

Reading pseudopotential file '/projects/musgravc/apps/jdftx-1.6.0/build/pseudopotentials/GBRV_v1.5/h_pbe_v1.4.uspp':
  Title: H.  Created by USPP 7.3.6 on 2-4-15
  Reference state energy: -0.458849.  1 valence electrons in orbitals:
    |100>  occupation: 1  eigenvalue: -0.238595
  lMax: 0  lLocal: 1  QijEcut: 6
  2 projectors sampled on a log grid with 395 points:
    l: 0  eig: -0.238595  rCut: 1.2
    l: 0  eig: 1.000000  rCut: 1.2
  Transforming local potential to a uniform radial grid of dG=0.02 with 1464 points.
  Transforming nonlocal projectors to a uniform radial grid of dG=0.02 with 432 points.
  Transforming density augmentations to a uniform radial grid of dG=0.02 with 1464 points.
  Transforming atomic orbitals to a uniform radial grid of dG=0.02 with 432 points.
  Core radius for overlap checks: 1.20 bohrs.

Initialized 5 species with 53 total atoms.

Folded 1 k-points by 3x3x1 to 9 k-points.

---------- Setting up k-points, bands, fillings ----------
No reducable k-points. 
Computing the number of bands and number of electrons
Calculating initial fillings.
nElectrons: 225.000000   nBands: 135   nStates: 18

----- Setting up reduced wavefunction bases (one per k-point) -----
average nbasis = 86412.556 , ideal nbasis = 86404.907

----- Initializing Supercell corresponding to k-point mesh -----
Lattice vector linear combinations in supercell:
[   3   0   0  ]
[   0   3   0  ]
[   0   0   1  ]
Supercell lattice vectors:
[  70.3088  -35.2004  0  ]
[  0.053982  59.8255  0  ]
[  0  0  43.2563  ]

Initializing DFT-D3 calculator:
	Parameters set for gga-PBE functional
	s6:  1.000  s_r6:  1.217
	s8:  0.722  s_r8:  1.000
	Per-atom parameters loaded for:
	 C:  sqrtQ[a0]:  3.105  Rcov[a0]:  1.417  CN: [ 0.00 0.99 2.00 3.00 3.98 ]
	 N:  sqrtQ[a0]:  2.712  Rcov[a0]:  1.342  CN: [ 0.00 0.99 2.01 2.99 ]
	Ti:  sqrtQ[a0]:  6.288  Rcov[a0]:  2.305  CN: [ 0.00 1.83 3.87 ]
	 O:  sqrtQ[a0]:  2.594  Rcov[a0]:  1.191  CN: [ 0.00 0.99 1.99 ]
	 H:  sqrtQ[a0]:  2.007  Rcov[a0]:  0.605  CN: [ 0.91 0.00 ]

Initializing DFT-D2 calculator for fluid / solvation:
	 C:  C6:   30.35 Eh-a0^6  R0: 2.744 a0
	 N:  C6:   21.33 Eh-a0^6  R0: 2.640 a0
	Ti:  C6:  187.33 Eh-a0^6  R0: 2.952 a0
	 O:  C6:   12.14 Eh-a0^6  R0: 2.536 a0
	 H:  C6:    2.43 Eh-a0^6  R0: 1.892 a0

---------- Setting up ewald sum ----------
Optimum gaussian width for ewald sums = 5.608291 bohr.
Real space sum over 567 unit cells with max indices [  4  4  3  ]
Reciprocal space sum over 7803 terms with max indices [  8  8  13  ]

Computing DFT-D3 correction:
# coordination-number C 3.299 3.321 3.335 3.331 3.312 3.288 3.317 3.549 3.329 3.313 3.301 3.326 3.303 3.300 3.324 3.614 3.267 3.300 3.319 3.334 3.326 3.302 3.300 3.327 3.334 3.319 3.299 3.265 3.549 3.324 3.301 3.304 3.322 3.301 3.313 3.329 3.625 3.327 3.289 3.312 3.332 3.334 3.321 3.300 3.012
# coordination-number N 3.174 3.178 3.171 3.180
# coordination-number Ti 7.390
# coordination-number O 2.021 1.990
# coordination-number H 1.008
# diagonal-C6 C 24.29 24.07 23.92 23.96 24.17 24.39 24.11 20.93 23.98 24.15 24.27 24.02 24.25 24.28 24.04 20.12 24.57 24.28 24.09 23.93 24.02 24.27 24.28 24.00 23.93 24.09 24.29 24.59 20.94 24.04 24.27 24.24 24.06 24.27 24.16 23.99 19.99 24.00 24.39 24.16 23.96 23.93 24.08 24.28 25.65
# diagonal-C6 N 15.60 15.60 15.60 15.60
# diagonal-C6 Ti 321.59
# diagonal-C6 O 10.40 10.41
# diagonal-C6 H 3.09
EvdW_6 =   -0.040318
EvdW_8 =   -0.032045

---------- Allocating electronic variables ----------
Initializing wave functions:  linear combination of atomic orbitals
C pseudo-atom occupations:   s ( 2 )  p ( 2 )
N pseudo-atom occupations:   s ( 2 )  p ( 3 )
Ti pseudo-atom occupations:   s ( 2 0 )  p ( 6 )  d ( 4 )
O pseudo-atom occupations:   s ( 2 )  p ( 4 )
H pseudo-atom occupations:   s ( 1 )
	FillingsUpdate:  mu: -0.220679309  nElectrons: 225.000000  magneticMoment: [ Abs: 0.00486  Tot: +0.00076 ]
LCAOMinimize: Iter:   0  F: -382.4467033849113022  |grad|_K:  1.119e-02  alpha:  1.000e+00
	FillingsUpdate:  mu: -0.247091808  nElectrons: 225.000000  magneticMoment: [ Abs: 0.00429  Tot: -0.00007 ]
LCAOMinimize: Iter:   1  F: -383.1012770922217783  |grad|_K:  2.269e-03  alpha:  3.516e-01  linmin: -1.139e-02  cgtest: -4.103e+00  t[s]:    396.09
	FillingsUpdate:  mu: -0.245645092  nElectrons: 225.000000  magneticMoment: [ Abs: 0.00430  Tot: -0.00008 ]
LCAOMinimize: Iter:   2  F: -383.1694152330327370  |grad|_K:  2.368e-03  alpha:  1.275e-02  linmin: -7.292e-02  cgtest:  9.281e-01  t[s]:    551.69
LCAOMinimize: 	Wrong curvature in test step, increasing alphaT to 3.825023e-02.
	FillingsUpdate:  mu: -0.245743755  nElectrons: 225.000000  magneticMoment: [ Abs: 0.00430  Tot: -0.00007 ]
LCAOMinimize: Iter:   3  F: -383.2582028567137513  |grad|_K:  3.663e-03  alpha: -2.207e-02  linmin: -1.093e-01  cgtest:  6.180e-01  t[s]:    704.41
	FillingsUpdate:  mu: -0.195260584  nElectrons: 225.000000  magneticMoment: [ Abs: 0.00435  Tot: +0.00006 ]
LCAOMinimize: Iter:   4  F: -383.4601564942319101  |grad|_K:  5.526e-03  alpha:  1.065e-01  linmin:  1.149e-01  cgtest: -5.690e-01  t[s]:    859.95
LCAOMinimize: 	Bad step direction: g.d > 0.
LCAOMinimize: 	Undoing step.
LCAOMinimize: 	Step failed: resetting search direction.
	FillingsUpdate:  mu: -0.195260584  nElectrons: 225.000000  magneticMoment: [ Abs: 0.00435  Tot: +0.00006 ]
LCAOMinimize: Iter:   5  F: -383.4601564942319101  |grad|_K:  5.526e-03  alpha:  0.000e+00
	FillingsUpdate:  mu: -0.178135766  nElectrons: 225.000000  magneticMoment: [ Abs: 0.00434  Tot: +0.00004 ]
LCAOMinimize: Iter:   6  F: -384.7911842636022470  |grad|_K:  8.320e-04  alpha:  1.039e-01  linmin: -2.628e-03  cgtest:  3.985e-01  t[s]:   1131.43
LCAOMinimize: Encountered beta<0, resetting CG.
	FillingsUpdate:  mu: -0.190402721  nElectrons: 225.000000  magneticMoment: [ Abs: 0.00434  Tot: +0.00004 ]
LCAOMinimize: Iter:   7  F: -384.8130178496476219  |grad|_K:  2.490e-04  alpha:  8.435e-02  linmin: -1.701e-01  cgtest:  4.081e-01  t[s]:   1287.26
LCAOMinimize: Encountered beta<0, resetting CG.
LCAOMinimize: 	Predicted alpha/alphaT>3.000000, increasing alphaT to 2.530621e-01.
	FillingsUpdate:  mu: -0.194070718  nElectrons: 225.000000  magneticMoment: [ Abs: 0.00438  Tot: +0.00007 ]
LCAOMinimize: Iter:   8  F: -384.8211662247891809  |grad|_K:  9.946e-05  alpha:  3.075e-01  linmin: -1.778e-02  cgtest:  4.426e-02  t[s]:   1482.87
	FillingsUpdate:  mu: -0.187798379  nElectrons: 225.000000  magneticMoment: [ Abs: 0.00439  Tot: +0.00008 ]
LCAOMinimize: Iter:   9  F: -384.8216643401580654  |grad|_K:  6.414e-05  alpha:  7.103e-02  linmin: -1.748e-01  cgtest:  8.156e-01  t[s]:   1638.66
LCAOMinimize: Encountered beta<0, resetting CG.
LCAOMinimize: 	Predicted alpha/alphaT>3.000000, increasing alphaT to 2.130998e-01.
	FillingsUpdate:  mu: -0.187105912  nElectrons: 225.000000  magneticMoment: [ Abs: 0.00443  Tot: +0.00011 ]
LCAOMinimize: Iter:  10  F: -384.8223017288474352  |grad|_K:  5.635e-05  alpha:  3.735e-01  linmin:  3.372e-03  cgtest: -1.458e-02  t[s]:   1834.23
	FillingsUpdate:  mu: -0.190845737  nElectrons: 225.000000  magneticMoment: [ Abs: 0.00445  Tot: +0.00013 ]
LCAOMinimize: Iter:  11  F: -384.8225337337810288  |grad|_K:  5.250e-05  alpha:  1.913e-01  linmin:  2.091e-03  cgtest: -5.185e-02  t[s]:   1990.31
	FillingsUpdate:  mu: -0.187933012  nElectrons: 225.000000  magneticMoment: [ Abs: 0.00450  Tot: +0.00017 ]
LCAOMinimize: Iter:  12  F: -384.8227128021100043  |grad|_K:  1.056e-05  alpha:  1.575e-01  linmin:  8.169e-03  cgtest:  1.842e-01  t[s]:   2145.82
	FillingsUpdate:  mu: -0.187765951  nElectrons: 225.000000  magneticMoment: [ Abs: 0.00452  Tot: +0.00021 ]
LCAOMinimize: Iter:  13  F: -384.8227262014161170  |grad|_K:  3.659e-06  alpha:  2.864e-01  linmin:  5.073e-04  cgtest:  2.330e-05  t[s]:   2301.72
	FillingsUpdate:  mu: -0.187877067  nElectrons: 225.000000  magneticMoment: [ Abs: 0.00455  Tot: +0.00025 ]
LCAOMinimize: Iter:  14  F: -384.8227277838113878  |grad|_K:  2.318e-06  alpha:  2.817e-01  linmin: -1.745e-04  cgtest: -2.571e-04  t[s]:   2457.36
	FillingsUpdate:  mu: -0.187776239  nElectrons: 225.000000  magneticMoment: [ Abs: 0.00457  Tot: +0.00027 ]
LCAOMinimize: Iter:  15  F: -384.8227280279882621  |grad|_K:  1.440e-06  alpha:  1.075e-01  linmin: -1.009e-03  cgtest:  8.009e-03  t[s]:   2613.02
	FillingsUpdate:  mu: -0.187814156  nElectrons: 225.000000  magneticMoment: [ Abs: 0.00462  Tot: +0.00035 ]
LCAOMinimize: Iter:  16  F: -384.8227283067083135  |grad|_K:  6.397e-07  alpha:  3.192e-01  linmin:  1.702e-04  cgtest: -1.812e-02  t[s]:   2768.60
LCAOMinimize: Converged (|Delta F|<1.000000e-06 for 2 iters).
----- createFluidSolver() ----- (Fluid-side solver setup)
   Initializing fluid molecule 'H2O'
     Initializing site 'O'
       Electron density: proportional to exp(-r/0.36935)*erfc((r-0.51523)/0.36823) with norm 6.826
       Charge density: gaussian nuclear width 0.478731 with net site charge 0.826
       Polarizability: cuspless exponential with width 0.32 and norm 3.73
       Hard sphere radius: 2.57003 bohrs
       Positions in reference frame:
         [ +0.000000 +0.000000 +0.000000 ]
     Initializing site 'H'
       Electron density: proportional to exp(-r/0.34641)*erfc((r-0)/0.390882) with norm 0.587
       Charge density: gaussian nuclear width 0.377945 with net site charge -0.413
       Polarizability: cuspless exponential with width 0.39 and norm 3.3
       Positions in reference frame:
         [ +0.000000 -1.441945 +1.122523 ]
         [ +0.000000 +1.441945 +1.122523 ]
     Net charge: 0   dipole magnitude: 0.927204
     Initializing spherical shell mfKernel with radius 2.61727 Bohr
     deltaS corrections:
       site 'O': -7.54299
       site 'H': -6.83917
   Initializing fluid molecule 'Na+'
     Initializing site 'Na'
       Electron density: proportional to exp(-r/0.19682)*erfc((r-0.71491)/0.41314) with norm 8.1383
       Charge density: gaussian nuclear width 0.365347 with net site charge -1
       Hard sphere radius: 1.86327 bohrs
       Positions in reference frame:
         [ +0.000000 +0.000000 +0.000000 ]
     Net charge: -1   dipole magnitude: 0
     Initializing gaussian mfKernel with width: 1.55004 Bohr
     deltaS corrections:
       site 'Na': -22.3555
   Initializing fluid molecule 'F-'
     Initializing site 'F'
       Electron density: proportional to exp(-r/0.38886)*erfc((r-0)/0.438782) with norm 8
       Charge density: gaussian nuclear width 0.374796 with net site charge 1
       Hard sphere radius: 2.39995 bohrs
       Positions in reference frame:
         [ +0.000000 +0.000000 +0.000000 ]
     Net charge: 1   dipole magnitude: 0
     Initializing gaussian mfKernel with width: 1.59012 Bohr
     deltaS corrections:
       site 'F': -9.04335

Correction to mu due to finite nuclear width = -0.0110378
   Cavity determined by nc: 0.00142 and sigma: 0.707107
   Nonlocal vdW cavity from gaussian model electron density with norm = 8 and sigma = 0.993594 bohr
   Charge asymmetry in cavity with sensitivity pCavity = 36.5 e-bohr/Eh
   Electrostatic cavity expanded by eta = 1.46 bohrs
   Weighted density cavitation model constrained by Nbulk: 0.0049383 bohr^-3, Pvap: 3.14029 kPa, Rvdw: 2.61727 bohr and sigmaBulk: 4.62e-05 Eh/bohr^2 at T: 298 K.
   Weighted density dispersion model using vdW pair potentials with single solvent site with sqrtC6eff: 0.77 SI.


---- Citations for features of the code used in this run ----

   Software package:
      R. Sundararaman, K. Letchworth-Weaver, K.A. Schwarz, D. Gunceler, Y. Ozhabes and T.A. Arias, 'JDFTx: software for joint density-functional theory', SoftwareX 6, 278 (2017)

   gga-PBE exchange-correlation functional:
      J.P. Perdew, K. Burke and M. Ernzerhof, Phys. Rev. Lett. 77, 3865 (1996)

   Pseudopotentials:
      KF Garrity, JW Bennett, KM Rabe and D Vanderbilt, Comput. Mater. Sci. 81, 446 (2014)

   DFT-D3 dispersion correction:
      S. Grimme, J. Antony, S. Ehrlich and H. Krieg, J. Chem. Phys. 132, 154104 (2010)

   DFT-D2 dispersion correction:
      S. Grimme, J. Comput. Chem. 27, 1787 (2006)

   Charge-asymmetric nonlocally-determined local-electric (CANDLE) solvation model:
      R. Sundararaman and W.A. Goddard III, J. Chem. Phys. 142, 064107 (2015)

   Total energy minimization with Auxiliary Hamiltonian:
      C. Freysoldt, S. Boeck, and J. Neugebauer, Phys. Rev. B 79, 241103(R) (2009)

   Linear-tetrahedron sampling for density of states:
      G. Lehmann and M. Taut, Phys. status solidi (b) 54, 469 (1972)

This list may not be complete. Please suggest additional citations or
report any other bugs at https://github.com/shankar1729/jdftx/issues

Initialization completed successfully at t[s]:   2790.07


Computing DFT-D3 correction:
# coordination-number C 3.299 3.321 3.335 3.331 3.312 3.288 3.317 3.549 3.329 3.313 3.301 3.326 3.303 3.300 3.324 3.614 3.267 3.300 3.319 3.334 3.326 3.302 3.300 3.327 3.334 3.319 3.299 3.265 3.549 3.324 3.301 3.304 3.322 3.301 3.313 3.329 3.625 3.327 3.289 3.312 3.332 3.334 3.321 3.300 3.012
# coordination-number N 3.174 3.178 3.171 3.180
# coordination-number Ti 7.390
# coordination-number O 2.021 1.990
# coordination-number H 1.008
# diagonal-C6 C 24.29 24.07 23.92 23.96 24.17 24.39 24.11 20.93 23.98 24.15 24.27 24.02 24.25 24.28 24.04 20.12 24.57 24.28 24.09 23.93 24.02 24.27 24.28 24.00 23.93 24.09 24.29 24.59 20.94 24.04 24.27 24.24 24.06 24.27 24.16 23.99 19.99 24.00 24.39 24.16 23.96 23.93 24.08 24.28 25.65
# diagonal-C6 N 15.60 15.60 15.60 15.60
# diagonal-C6 Ti 321.59
# diagonal-C6 O 10.40 10.41
# diagonal-C6 H 3.09
EvdW_6 =   -0.040318
EvdW_8 =   -0.032045
Fluid solver invoked on fresh (random / LCAO) wavefunctions
Running a vacuum solve first:

-------- Initial electronic minimization -----------
	FillingsUpdate:  mu: -0.187814156  nElectrons: 225.000000  magneticMoment: [ Abs: 0.00462  Tot: +0.00035 ]
ElecMinimize: Iter:   0  F: -384.822728306708143  |grad|_K:  1.441e-04  alpha:  1.000e+00
	FillingsUpdate:  mu: -0.121408109  nElectrons: 225.000000  magneticMoment: [ Abs: 0.00269  Tot: +0.00049 ]
	SubspaceRotationAdjust: set factor to 1
ElecMinimize: Iter:   1  F: -387.766924052070351  |grad|_K:  5.173e-05  alpha:  6.835e-01  linmin:  1.094e-05  t[s]:   3042.55
	FillingsUpdate:  mu: -0.059898446  nElectrons: 225.000000  magneticMoment: [ Abs: 0.00447  Tot: +0.00250 ]
	SubspaceRotationAdjust: set factor to 0.728
ElecMinimize: Iter:   2  F: -387.827733447346077  |grad|_K:  5.538e-05  alpha:  1.230e-01  linmin: -3.533e-04  t[s]:   3196.96
	FillingsUpdate:  mu: -0.109855186  nElectrons: 225.000000  magneticMoment: [ Abs: 0.00457  Tot: +0.00378 ]
	SubspaceRotationAdjust: set factor to 0.303
ElecMinimize: Iter:   3  F: -388.021726807725599  |grad|_K:  2.756e-05  alpha:  2.978e-01  linmin:  7.170e-04  t[s]:   3351.66
	FillingsUpdate:  mu: -0.062757091  nElectrons: 225.000000  magneticMoment: [ Abs: 0.01197  Tot: +0.01140 ]
	SubspaceRotationAdjust: set factor to 0.183
ElecMinimize: Iter:   4  F: -388.041639085332747  |grad|_K:  2.078e-05  alpha:  1.828e-01  linmin:  4.036e-05  t[s]:   3506.14
	FillingsUpdate:  mu: -0.064381075  nElectrons: 225.000000  magneticMoment: [ Abs: 0.02282  Tot: +0.02241 ]
	SubspaceRotationAdjust: set factor to 0.282
ElecMinimize: Iter:   5  F: -388.077831634224196  |grad|_K:  1.043e-05  alpha:  4.018e-01  linmin: -2.692e-05  t[s]:   3660.16
	FillingsUpdate:  mu: -0.086595935  nElectrons: 225.000000  magneticMoment: [ Abs: 0.03242  Tot: +0.03173 ]
	SubspaceRotationAdjust: set factor to 0.225
ElecMinimize: Iter:   6  F: -388.091274146265164  |grad|_K:  7.481e-06  alpha:  6.006e-01  linmin:  5.242e-04  t[s]:   3814.34
	FillingsUpdate:  mu: -0.064616700  nElectrons: 225.000000  magneticMoment: [ Abs: 0.05513  Tot: +0.05411 ]
	SubspaceRotationAdjust: set factor to 0.183
ElecMinimize: Iter:   7  F: -388.095371701977001  |grad|_K:  5.124e-06  alpha:  3.794e-01  linmin:  2.389e-05  t[s]:   3968.81
	FillingsUpdate:  mu: -0.066334443  nElectrons: 225.000000  magneticMoment: [ Abs: 0.09016  Tot: +0.08844 ]
	SubspaceRotationAdjust: set factor to 0.22
ElecMinimize: Iter:   8  F: -388.098041944197007  |grad|_K:  2.494e-06  alpha:  4.850e-01  linmin:  1.200e-05  t[s]:   4123.41
	FillingsUpdate:  mu: -0.072094895  nElectrons: 225.000000  magneticMoment: [ Abs: 0.13874  Tot: +0.13572 ]
	SubspaceRotationAdjust: set factor to 0.228
ElecMinimize: Iter:   9  F: -388.098877525860928  |grad|_K:  2.326e-06  alpha:  6.399e-01  linmin:  9.663e-06  t[s]:   4277.38
	FillingsUpdate:  mu: -0.067198460  nElectrons: 225.000000  magneticMoment: [ Abs: 0.23547  Tot: +0.23028 ]
	SubspaceRotationAdjust: set factor to 0.261
ElecMinimize: Iter:  10  F: -388.099485385703815  |grad|_K:  2.021e-06  alpha:  5.322e-01  linmin:  9.329e-05  t[s]:   4431.67
	FillingsUpdate:  mu: -0.068852835  nElectrons: 225.000000  magneticMoment: [ Abs: 0.45896  Tot: +0.44606 ]
	SubspaceRotationAdjust: set factor to 0.295
ElecMinimize: Iter:  11  F: -388.100211248708206  |grad|_K:  2.963e-06  alpha:  9.947e-01  linmin:  1.072e-03  t[s]:   4586.12
	FillingsUpdate:  mu: -0.070728436  nElectrons: 225.000000  magneticMoment: [ Abs: 0.54420  Tot: +0.52199 ]
	SubspaceRotationAdjust: set factor to 0.335
ElecMinimize: Iter:  12  F: -388.100493785532365  |grad|_K:  2.554e-06  alpha:  2.846e-01  linmin:  5.615e-04  t[s]:   4740.41
	FillingsUpdate:  mu: -0.072634481  nElectrons: 225.000000  magneticMoment: [ Abs: 0.57630  Tot: +0.54345 ]
	SubspaceRotationAdjust: set factor to 0.384
ElecMinimize: Iter:  13  F: -388.100772173472080  |grad|_K:  1.999e-06  alpha:  2.392e-01  linmin: -1.476e-04  t[s]:   4894.78
	FillingsUpdate:  mu: -0.073072880  nElectrons: 225.000000  magneticMoment: [ Abs: 0.60053  Tot: +0.55192 ]
	SubspaceRotationAdjust: set factor to 0.443
ElecMinimize: Iter:  14  F: -388.101062457299292  |grad|_K:  1.779e-06  alpha:  3.316e-01  linmin: -2.499e-04  t[s]:   5048.95
	FillingsUpdate:  mu: -0.072584285  nElectrons: 225.000000  magneticMoment: [ Abs: 0.62587  Tot: +0.55467 ]
	SubspaceRotationAdjust: set factor to 0.511
ElecMinimize: Iter:  15  F: -388.101316352510764  |grad|_K:  1.604e-06  alpha:  3.656e-01  linmin: -7.258e-05  t[s]:   5203.24
	FillingsUpdate:  mu: -0.073112230  nElectrons: 225.000000  magneticMoment: [ Abs: 0.65431  Tot: +0.55557 ]
	SubspaceRotationAdjust: set factor to 0.555
ElecMinimize: Iter:  16  F: -388.101525247635550  |grad|_K:  1.424e-06  alpha:  3.808e-01  linmin: -1.671e-05  t[s]:   5357.53
	FillingsUpdate:  mu: -0.073261602  nElectrons: 225.000000  magneticMoment: [ Abs: 0.67932  Tot: +0.55621 ]
	SubspaceRotationAdjust: set factor to 0.587
ElecMinimize: Iter:  17  F: -388.101663998906588  |grad|_K:  1.121e-06  alpha:  3.245e-01  linmin: -1.097e-06  t[s]:   5511.57
	FillingsUpdate:  mu: -0.072322026  nElectrons: 225.000000  magneticMoment: [ Abs: 0.70020  Tot: +0.55692 ]
	SubspaceRotationAdjust: set factor to 0.621
ElecMinimize: Iter:  18  F: -388.101758871420088  |grad|_K:  1.025e-06  alpha:  3.591e-01  linmin:  9.482e-06  t[s]:   5666.05
	FillingsUpdate:  mu: -0.072377838  nElectrons: 225.000000  magneticMoment: [ Abs: 0.71480  Tot: +0.55717 ]
	SubspaceRotationAdjust: set factor to 0.678
ElecMinimize: Iter:  19  F: -388.101836005783525  |grad|_K:  8.212e-07  alpha:  3.501e-01  linmin:  1.195e-06  t[s]:   5820.96
	FillingsUpdate:  mu: -0.073244674  nElectrons: 225.000000  magneticMoment: [ Abs: 0.71840  Tot: +0.55677 ]
	SubspaceRotationAdjust: set factor to 0.75
ElecMinimize: Iter:  20  F: -388.101879902918313  |grad|_K:  6.876e-07  alpha:  3.098e-01  linmin:  1.088e-06  t[s]:   5975.59
	FillingsUpdate:  mu: -0.072963317  nElectrons: 225.000000  magneticMoment: [ Abs: 0.71818  Tot: +0.55631 ]
	SubspaceRotationAdjust: set factor to 0.835
ElecMinimize: Iter:  21  F: -388.101917645392064  |grad|_K:  6.344e-07  alpha:  3.799e-01  linmin:  2.750e-06  t[s]:   6129.83
	FillingsUpdate:  mu: -0.072339565  nElectrons: 225.000000  magneticMoment: [ Abs: 0.71472  Tot: +0.55598 ]
	SubspaceRotationAdjust: set factor to 0.936
ElecMinimize: Iter:  22  F: -388.101944780441329  |grad|_K:  5.211e-07  alpha:  3.210e-01  linmin:  3.839e-07  t[s]:   6284.44
	FillingsUpdate:  mu: -0.072659574  nElectrons: 225.000000  magneticMoment: [ Abs: 0.70788  Tot: +0.55571 ]
	SubspaceRotationAdjust: set factor to 1.12
ElecMinimize: Iter:  23  F: -388.101962663008010  |grad|_K:  4.389e-07  alpha:  3.134e-01  linmin: -1.364e-06  t[s]:   6439.17
	FillingsUpdate:  mu: -0.072410570  nElectrons: 225.000000  magneticMoment: [ Abs: 0.70111  Tot: +0.55557 ]
	SubspaceRotationAdjust: set factor to 1.2
ElecMinimize: Iter:  24  F: -388.101974752313936  |grad|_K:  3.421e-07  alpha:  2.985e-01  linmin:  2.099e-06  t[s]:   6594.61
	FillingsUpdate:  mu: -0.072357857  nElectrons: 225.000000  magneticMoment: [ Abs: 0.69476  Tot: +0.55552 ]
	SubspaceRotationAdjust: set factor to 1.31
ElecMinimize: Iter:  25  F: -388.101982207076389  |grad|_K:  2.875e-07  alpha:  3.033e-01  linmin:  8.515e-07  t[s]:   6749.45
	FillingsUpdate:  mu: -0.072659513  nElectrons: 225.000000  magneticMoment: [ Abs: 0.68916  Tot: +0.55552 ]
	SubspaceRotationAdjust: set factor to 1.37
ElecMinimize: Iter:  26  F: -388.101987406200351  |grad|_K:  2.521e-07  alpha:  2.995e-01  linmin: -7.664e-08  t[s]:   6904.10
	FillingsUpdate:  mu: -0.072277494  nElectrons: 225.000000  magneticMoment: [ Abs: 0.68652  Tot: +0.55559 ]
	SubspaceRotationAdjust: set factor to 1.39
ElecMinimize: Iter:  27  F: -388.101990954284076  |grad|_K:  2.307e-07  alpha:  2.657e-01  linmin: -6.902e-08  t[s]:   7059.00
	FillingsUpdate:  mu: -0.072685976  nElectrons: 225.000000  magneticMoment: [ Abs: 0.68450  Tot: +0.55563 ]
	SubspaceRotationAdjust: set factor to 1.44
ElecMinimize: Iter:  28  F: -388.101993696728300  |grad|_K:  1.961e-07  alpha:  2.453e-01  linmin: -4.762e-07  t[s]:   7214.31
	FillingsUpdate:  mu: -0.072458388  nElectrons: 225.000000  magneticMoment: [ Abs: 0.68480  Tot: +0.55570 ]
	SubspaceRotationAdjust: set factor to 1.45
ElecMinimize: Iter:  29  F: -388.101995716986778  |grad|_K:  1.576e-07  alpha:  2.500e-01  linmin: -6.658e-08  t[s]:   7369.60
	FillingsUpdate:  mu: -0.072584361  nElectrons: 225.000000  magneticMoment: [ Abs: 0.68571  Tot: +0.55571 ]
	SubspaceRotationAdjust: set factor to 1.64
ElecMinimize: Iter:  30  F: -388.101997194658225  |grad|_K:  1.316e-07  alpha:  2.831e-01  linmin: -5.697e-07  t[s]:   7524.62
	FillingsUpdate:  mu: -0.072454862  nElectrons: 225.000000  magneticMoment: [ Abs: 0.68732  Tot: +0.55572 ]
	SubspaceRotationAdjust: set factor to 1.62
ElecMinimize: Iter:  31  F: -388.101998202395180  |grad|_K:  1.091e-07  alpha:  2.769e-01  linmin: -1.124e-07  t[s]:   7679.53
	FillingsUpdate:  mu: -0.072601802  nElectrons: 225.000000  magneticMoment: [ Abs: 0.68841  Tot: +0.55569 ]
	SubspaceRotationAdjust: set factor to 1.6
ElecMinimize: Iter:  32  F: -388.101998875735603  |grad|_K:  1.012e-07  alpha:  2.690e-01  linmin: -1.380e-07  t[s]:   7834.86
	FillingsUpdate:  mu: -0.072409028  nElectrons: 225.000000  magneticMoment: [ Abs: 0.68956  Tot: +0.55569 ]
	SubspaceRotationAdjust: set factor to 1.51
ElecMinimize: Iter:  33  F: -388.101999338685971  |grad|_K:  9.411e-08  alpha:  2.152e-01  linmin:  1.841e-07  t[s]:   7990.10
	FillingsUpdate:  mu: -0.072579137  nElectrons: 225.000000  magneticMoment: [ Abs: 0.68987  Tot: +0.55566 ]
	SubspaceRotationAdjust: set factor to 1.33
ElecMinimize: Iter:  34  F: -388.101999722149969  |grad|_K:  7.375e-08  alpha:  2.061e-01  linmin:  1.617e-07  t[s]:   8145.28
	FillingsUpdate:  mu: -0.072517346  nElectrons: 225.000000  magneticMoment: [ Abs: 0.69004  Tot: +0.55566 ]
	SubspaceRotationAdjust: set factor to 1.49
ElecMinimize: Iter:  35  F: -388.102000017050671  |grad|_K:  5.560e-08  alpha:  2.581e-01  linmin: -8.798e-08  t[s]:   8299.67
	FillingsUpdate:  mu: -0.072515759  nElectrons: 225.000000  magneticMoment: [ Abs: 0.68979  Tot: +0.55567 ]
	SubspaceRotationAdjust: set factor to 1.66
ElecMinimize: Iter:  36  F: -388.102000208840877  |grad|_K:  4.654e-08  alpha:  2.953e-01  linmin:  4.123e-07  t[s]:   8454.62
	FillingsUpdate:  mu: -0.072565386  nElectrons: 225.000000  magneticMoment: [ Abs: 0.68929  Tot: +0.55567 ]
	SubspaceRotationAdjust: set factor to 1.71
ElecMinimize: Iter:  37  F: -388.102000345363081  |grad|_K:  4.399e-08  alpha:  3.001e-01  linmin: -1.207e-07  t[s]:   8609.56
	FillingsUpdate:  mu: -0.072481774  nElectrons: 225.000000  magneticMoment: [ Abs: 0.68906  Tot: +0.55568 ]
	SubspaceRotationAdjust: set factor to 1.6
ElecMinimize: Iter:  38  F: -388.102000435140212  |grad|_K:  4.216e-08  alpha:  2.207e-01  linmin: -9.195e-08  t[s]:   8764.47
	FillingsUpdate:  mu: -0.072560573  nElectrons: 225.000000  magneticMoment: [ Abs: 0.68875  Tot: +0.55568 ]
	SubspaceRotationAdjust: set factor to 1.31
ElecMinimize: Iter:  39  F: -388.102000500245254  |grad|_K:  3.296e-08  alpha:  1.742e-01  linmin:  2.036e-07  t[s]:   8919.28
ElecMinimize: Converged (|Delta F|<1.000000e-07 for 2 iters).
Setting wave functions to eigenvectors of Hamiltonian
Converging empty states (this may take a while): |deigs|: 8.574e-03
Vacuum energy after initial minimize, F = -388.102000500245254


-------- Electronic minimization -----------
	Linear fluid (dielectric constant: 78.4, screening length: 8.12261 Bohr) occupying 0.719555 of unit cell:	Completed after 22 iterations at t[s]:   9585.58
	FillingsUpdate:  mu: -0.135460707  nElectrons: 225.000000  magneticMoment: [ Abs: 0.68940  Tot: +0.55569 ]
ElecMinimize: Iter:   0  F: -388.102177660103678  |grad|_K:  3.862e-06  alpha:  1.000e+00
	Linear fluid (dielectric constant: 78.4, screening length: 8.12261 Bohr) occupying 0.720564 of unit cell:	Completed after 17 iterations at t[s]:   9737.84
	Linear fluid (dielectric constant: 78.4, screening length: 8.12261 Bohr) occupying 0.720165 of unit cell:	Completed after 13 iterations at t[s]:   9799.56
	FillingsUpdate:  mu: -0.133990824  nElectrons: 225.000000  magneticMoment: [ Abs: 0.68618  Tot: +0.55546 ]
	SubspaceRotationAdjust: set factor to 1.04
ElecMinimize: Iter:   1  F: -388.103978772420930  |grad|_K:  3.026e-06  alpha:  5.953e-01  linmin:  3.638e-06  t[s]:   9867.42
	Linear fluid (dielectric constant: 78.4, screening length: 8.12261 Bohr) occupying 0.720608 of unit cell:	Completed after 15 iterations at t[s]:   9939.39
	Linear fluid (dielectric constant: 78.4, screening length: 8.12261 Bohr) occupying 0.720445 of unit cell:	Completed after 10 iterations at t[s]:   9998.02
	FillingsUpdate:  mu: -0.135118143  nElectrons: 225.000000  magneticMoment: [ Abs: 0.67915  Tot: +0.55503 ]
	SubspaceRotationAdjust: set factor to 0.64
ElecMinimize: Iter:   2  F: -388.104686376982158  |grad|_K:  1.282e-06  alpha:  3.714e-01  linmin:  7.448e-07  t[s]:  10061.20
	Linear fluid (dielectric constant: 78.4, screening length: 8.12261 Bohr) occupying 0.720530 of unit cell:	Completed after 9 iterations at t[s]:  10122.26
	Linear fluid (dielectric constant: 78.4, screening length: 8.12261 Bohr) occupying 0.720545 of unit cell:	Completed after 3 iterations at t[s]:  10169.61
	FillingsUpdate:  mu: -0.131177118  nElectrons: 225.000000  magneticMoment: [ Abs: 0.68312  Tot: +0.55531 ]
	SubspaceRotationAdjust: set factor to 0.487
ElecMinimize: Iter:   3  F: -388.104836800648343  |grad|_K:  1.169e-06  alpha:  4.359e-01  linmin:  9.188e-06  t[s]:  10230.67
	Linear fluid (dielectric constant: 78.4, screening length: 8.12261 Bohr) occupying 0.720629 of unit cell:	Completed after 8 iterations at t[s]:  10290.00
	Linear fluid (dielectric constant: 78.4, screening length: 8.12261 Bohr) occupying 0.720606 of unit cell:	Completed after 5 iterations at t[s]:  10344.01
	FillingsUpdate:  mu: -0.134667772  nElectrons: 225.000000  magneticMoment: [ Abs: 0.67831  Tot: +0.55504 ]
	SubspaceRotationAdjust: set factor to 0.449
ElecMinimize: Iter:   4  F: -388.104927444485838  |grad|_K:  6.654e-07  alpha:  3.158e-01  linmin:  4.636e-06  t[s]:  10412.24
	Linear fluid (dielectric constant: 78.4, screening length: 8.12261 Bohr) occupying 0.720633 of unit cell:	Completed after 7 iterations at t[s]:  10476.53
	Linear fluid (dielectric constant: 78.4, screening length: 8.12261 Bohr) occupying 0.720657 of unit cell:	Completed after 6 iterations at t[s]:  10531.10
	FillingsUpdate:  mu: -0.134507847  nElectrons: 225.000000  magneticMoment: [ Abs: 0.67765  Tot: +0.55505 ]
	SubspaceRotationAdjust: set factor to 0.573
ElecMinimize: Iter:   5  F: -388.104982800109326  |grad|_K:  3.986e-07  alpha:  5.948e-01  linmin: -1.807e-07  t[s]:  10596.43
	Linear fluid (dielectric constant: 78.4, screening length: 8.12261 Bohr) occupying 0.720669 of unit cell:	Completed after 7 iterations at t[s]:  10659.89
	Linear fluid (dielectric constant: 78.4, screening length: 8.12261 Bohr) occupying 0.720666 of unit cell:	Completed after 3 iterations at t[s]:  10711.99
	FillingsUpdate:  mu: -0.133128810  nElectrons: 225.000000  magneticMoment: [ Abs: 0.67905  Tot: +0.55516 ]
	SubspaceRotationAdjust: set factor to 0.496
ElecMinimize: Iter:   6  F: -388.104998350617450  |grad|_K:  3.234e-07  alpha:  4.665e-01  linmin:  7.955e-07  t[s]:  10779.47
	Linear fluid (dielectric constant: 78.4, screening length: 8.12261 Bohr) occupying 0.720658 of unit cell:	Completed after 5 iterations at t[s]:  10841.47
	Linear fluid (dielectric constant: 78.4, screening length: 8.12261 Bohr) occupying 0.720660 of unit cell:	Completed after 2 iterations at t[s]:  10892.77
	FillingsUpdate:  mu: -0.134067375  nElectrons: 225.000000  magneticMoment: [ Abs: 0.67814  Tot: +0.55511 ]
	SubspaceRotationAdjust: set factor to 0.462
ElecMinimize: Iter:   7  F: -388.105005928762807  |grad|_K:  1.839e-07  alpha:  3.455e-01  linmin:  3.111e-06  t[s]:  10959.76
	Linear fluid (dielectric constant: 78.4, screening length: 8.12261 Bohr) occupying 0.720654 of unit cell:	Completed after 3 iterations at t[s]:  11019.96
	Linear fluid (dielectric constant: 78.4, screening length: 8.12261 Bohr) occupying 0.720648 of unit cell:	Completed after 2 iterations at t[s]:  11070.65
	FillingsUpdate:  mu: -0.133964193  nElectrons: 225.000000  magneticMoment: [ Abs: 0.67841  Tot: +0.55513 ]
	SubspaceRotationAdjust: set factor to 0.491
ElecMinimize: Iter:   8  F: -388.105010483658987  |grad|_K:  1.125e-07  alpha:  6.430e-01  linmin: -2.257e-06  t[s]:  11137.99
	Linear fluid (dielectric constant: 78.4, screening length: 8.12261 Bohr) occupying 0.720637 of unit cell:	Completed after 3 iterations at t[s]:  11198.33
	Linear fluid (dielectric constant: 78.4, screening length: 8.12261 Bohr) occupying 0.720638 of unit cell:	Completed after 0 iterations at t[s]:  11246.77
	FillingsUpdate:  mu: -0.133740610  nElectrons: 225.000000  magneticMoment: [ Abs: 0.67875  Tot: +0.55516 ]
	SubspaceRotationAdjust: set factor to 0.459
ElecMinimize: Iter:   9  F: -388.105012069095380  |grad|_K:  7.956e-08  alpha:  5.932e-01  linmin:  3.463e-05  t[s]:  11314.25
	Linear fluid (dielectric constant: 78.4, screening length: 8.12261 Bohr) occupying 0.720629 of unit cell:	Completed after 2 iterations at t[s]:  11373.22
	Linear fluid (dielectric constant: 78.4, screening length: 8.12261 Bohr) occupying 0.720633 of unit cell:	Completed after 2 iterations at t[s]:  11424.34
	FillingsUpdate:  mu: -0.134038623  nElectrons: 225.000000  magneticMoment: [ Abs: 0.67854  Tot: +0.55514 ]
	SubspaceRotationAdjust: set factor to 0.333
ElecMinimize: Iter:  10  F: -388.105012503070270  |grad|_K:  5.582e-08  alpha:  3.459e-01  linmin:  6.578e-05  t[s]:  11491.53
	Linear fluid (dielectric constant: 78.4, screening length: 8.12261 Bohr) occupying 0.720630 of unit cell:	Completed after 1 iterations at t[s]:  11550.08
	Linear fluid (dielectric constant: 78.4, screening length: 8.12261 Bohr) occupying 0.720628 of unit cell:	Completed after 1 iterations at t[s]:  11600.29
	FillingsUpdate:  mu: -0.133950817  nElectrons: 225.000000  magneticMoment: [ Abs: 0.67874  Tot: +0.55515 ]
	SubspaceRotationAdjust: set factor to 0.428
ElecMinimize: Iter:  11  F: -388.105012842315432  |grad|_K:  2.889e-08  alpha:  5.301e-01  linmin: -1.168e-04  t[s]:  11667.88
	Linear fluid (dielectric constant: 78.4, screening length: 8.12261 Bohr) occupying 0.720627 of unit cell:	Completed after 2 iterations at t[s]:  11726.66
	Linear fluid (dielectric constant: 78.4, screening length: 8.12261 Bohr) occupying 0.720627 of unit cell:	Completed after 0 iterations at t[s]:  11775.17
	FillingsUpdate:  mu: -0.133859409  nElectrons: 225.000000  magneticMoment: [ Abs: 0.67883  Tot: +0.55516 ]
	SubspaceRotationAdjust: set factor to 0.42
ElecMinimize: Iter:  12  F: -388.105012926852396  |grad|_K:  2.950e-08  alpha:  4.665e-01  linmin: -9.680e-05  t[s]:  11842.27
	Linear fluid (dielectric constant: 78.4, screening length: 8.12261 Bohr) occupying 0.720626 of unit cell:	Completed after 1 iterations at t[s]:  11900.27
	Linear fluid (dielectric constant: 78.4, screening length: 8.12261 Bohr) occupying 0.720626 of unit cell:	Completed after 0 iterations at t[s]:  11948.87
	FillingsUpdate:  mu: -0.133942326  nElectrons: 225.000000  magneticMoment: [ Abs: 0.67878  Tot: +0.55516 ]
	SubspaceRotationAdjust: set factor to 0.429
ElecMinimize: Iter:  13  F: -388.105013003860904  |grad|_K:  1.903e-08  alpha:  3.662e-01  linmin:  3.073e-05  t[s]:  12016.32
ElecMinimize: Converged (|Delta F|<1.000000e-07 for 2 iters).
Setting wave functions to eigenvectors of Hamiltonian
Converging empty states (this may take a while): |deigs|: 1.124e-03
Single-point solvation energy estimate, DeltaF = -0.003012503615651

Computing DFT-D3 correction:
# coordination-number C 3.299 3.321 3.335 3.331 3.312 3.288 3.317 3.549 3.329 3.313 3.301 3.326 3.303 3.300 3.324 3.614 3.267 3.300 3.319 3.334 3.326 3.302 3.300 3.327 3.334 3.319 3.299 3.265 3.549 3.324 3.301 3.304 3.322 3.301 3.313 3.329 3.625 3.327 3.289 3.312 3.332 3.334 3.321 3.300 3.012
# coordination-number N 3.174 3.178 3.171 3.180
# coordination-number Ti 7.390
# coordination-number O 2.021 1.990
# coordination-number H 1.008
# diagonal-C6 C 24.29 24.07 23.92 23.96 24.17 24.39 24.11 20.93 23.98 24.15 24.27 24.02 24.25 24.28 24.04 20.12 24.57 24.28 24.09 23.93 24.02 24.27 24.28 24.00 23.93 24.09 24.29 24.59 20.94 24.04 24.27 24.24 24.06 24.27 24.16 23.99 19.99 24.00 24.39 24.16 23.96 23.93 24.08 24.28 25.65
# diagonal-C6 N 15.60 15.60 15.60 15.60
# diagonal-C6 Ti 321.59
# diagonal-C6 O 10.40 10.41
# diagonal-C6 H 3.09
EvdW_6 =   -0.040318
EvdW_8 =   -0.032045

# Ionic positions in cartesian coordinates:
ion C   0.032550000000000   0.018799000000000  43.293384000000003 1
ion C  21.079585999999999   3.976350000000001  43.269809000000009 1
ion C  18.733094000000001   7.979364000000002  43.134719000000004 1
ion C  -7.013334000000002  11.979594000000004  43.121743000000009 1
ion C  -9.340662000000002  15.991521000000002  43.224087000000004 1
ion C   4.715965000000000   0.122169000000000   0.060213000000000 1
ion C   2.325303000000000   4.144980000000001   0.198503000000000 1
ion C  -0.089621000000000   7.963196000000002   0.116403000000000 1
ion C  -2.398569999999999  11.968434000000000  43.197441000000005 1
ion C  -4.692268000000001  15.997045000000004  43.208558000000004 1
ion C   9.407650000000002   0.014106000000000  43.237367000000006 1
ion C   7.121177000000001   4.125918000000001   0.098365000000000 1
ion C   0.002433000000000  15.899160000000002   0.012934000000000 1
ion C   2.379189999999999  19.861369000000003  43.248094000000009 1
ion C  11.792937000000002   3.962856000000001  43.188011000000010 1
ion C   9.506206000000002   7.952289000000002   0.011030000000000 1
ion C   4.702717999999999  15.762334000000003   0.131240000000000 1
ion C   7.029892000000000  19.867913000000005  43.275173000000009 1
ion C  16.436143000000001   3.948385000000000  43.174385000000008 1
ion C  14.128704000000001   7.971619000000000  43.112053000000010 1
ion C  11.807406000000004  11.974213000000004  43.197052000000006 1
ion C   9.403112999999999  15.910886000000003   0.020633000000000 1
ion C   0.020235000000000   2.703117000000001   0.076174000000000 1
ion C  -2.388482000000000   6.631966000000000  43.233041000000007 1
ion C  -4.708453000000001  10.630671000000003  43.126587000000008 1
ion C  -7.015518000000004  14.654863000000004  43.179057000000007 1
ion C  -9.339997000000000  18.680279000000002  43.285423999999999 1
ion C   4.717342000000000   2.843706000000001   0.152868000000000 1
ion C  -0.090031999999999  10.648721000000002   0.080976000000000 1
ion C  -2.371854000000001  14.639256000000003  43.219415000000005 1
ion C  -4.690535000000001  18.682392000000004  43.255967000000005 1
ion C   9.422056000000001   2.693777000000000  -0.017995000000000 1
ion C   2.304838999999999  14.461752000000002   0.140237000000000 1
ion C   0.016895999999997  18.579848000000005  43.241043000000005 1
ion C  14.114101000000002   2.606064000000000  43.192596000000009 1
ion C  11.819853000000002   6.633338000000001  43.164004000000006 1
ion C   9.499628000000001  10.642438000000004   0.033653000000000 1
ion C   7.098526999999999  14.480436000000003   0.116706000000000 1
ion C   4.703886000000001  18.483113000000003   0.044857000000000 1
ion C  18.763055999999999   2.613105000000000  43.232219000000008 1
ion C  16.432974999999999   6.623892000000001  43.119190000000010 1
ion C  14.121800000000000  10.643034000000002  43.122694000000010 1
ion C  11.777956000000003  14.646409000000002  43.231527000000007 1
ion C   9.392882999999999  18.594608000000004  43.277725000000011 1
ion C   4.460572000000001  10.091676000000001   5.579459000000001 1
ion N   2.190125999999999  11.874178000000002   0.276148000000000 1
ion N   7.212478999999999  11.882203000000002   0.224370000000000 1
ion N   2.199971000000001   6.747054000000000   0.350160000000000 1
ion N   7.233620000000001   6.709142000000001   0.182758000000000 1
ion Ti   4.790729000000000   9.316000000000003   1.752097000000000 1
ion O   3.982481000000001  10.811694000000003   7.920620000000001 1
ion O   6.212945999999999   8.464373000000000   5.252138000000001 1
ion H   2.591195999999999  12.065635000000002   7.919885000000001 1

# Forces in Cartesian coordinates:
force C  -0.000015877025630  -0.000028942327172  -0.000040495995974 1
force C  -0.000055111975383   0.000042842160703   0.000002761430926 1
force C  -0.000001944129369   0.000101681515703  -0.000017055236829 1
force C  -0.000037944708469   0.000186358999089  -0.000000368962743 1
force C  -0.000042124211495   0.000044842433411   0.000024724935256 1
force C  -0.000036921558629   0.000082408540414  -0.000007826597492 1
force C   0.000081648515420   0.000173321059284   0.000019042477653 1
force C   0.000028150103615   0.000148391962121   0.000055672798501 1
force C   0.000267429406865  -0.000047039076498  -0.000016158234224 1
force C  -0.000012474239603  -0.000029832954255  -0.000023623758258 1
force C   0.000049848476236   0.000055287343173  -0.000035665376768 1
force C   0.000014716890610   0.000118232788041   0.000016304673218 1
force C   0.000071732609306   0.000028036302541   0.000013564800694 1
force C   0.000042855283295   0.000057842197390   0.000023262316033 1
force C  -0.000006095041519   0.000009781376760  -0.000021825694404 1
force C  -0.000073972636177  -0.000011162323225   0.000032805133975 1
force C  -0.000091205577748   0.000124965941280  -0.000043561497282 1
force C  -0.000109499756852   0.000041979035396  -0.000001408272419 1
force C  -0.000075453692609  -0.000074459607456  -0.000014464751659 1
force C  -0.000119423351245   0.000063869620381   0.000111926523838 1
force C  -0.000152642913950  -0.000040285986137  -0.000002165594765 1
force C   0.000062759794967   0.000081651058871   0.000031245580098 1
force C   0.000071322665774   0.000109437881439   0.000033997591728 1
force C   0.000083965131864   0.000037523891507   0.000008701634406 1
force C  -0.000094634104900  -0.000001717560640  -0.000041013289334 1
force C  -0.000029771742217   0.000117762903331  -0.000011709033186 1
force C  -0.000000183695669  -0.000046140885230   0.000005563337003 1
force C  -0.000091503271882   0.000036312844411   0.000001219916779 1
force C  -0.000079748276330  -0.000048234261782   0.000058778174424 1
force C  -0.000127211613426  -0.000056884253438  -0.000028764093375 1
force C  -0.000084479668266  -0.000097947526147   0.000013921371323 1
force C   0.000006076693938   0.000073582223397  -0.000008366992468 1
force C   0.000010828128721  -0.000157682489401  -0.000011573073919 1
force C   0.000097944425499   0.000063746257707  -0.000002431227365 1
force C   0.000080435258301  -0.000030184009616   0.000043448079857 1
force C  -0.000031068363705   0.000029055539982   0.000024556491196 1
force C  -0.000097631541121   0.000131790739994   0.000012548903269 1
force C   0.000066312787528  -0.000079069621444   0.000011320393385 1
force C  -0.000012180561650  -0.000099248522176  -0.000045452124147 1
force C  -0.000097122154725   0.000072840679518   0.000006398284379 1
force C   0.000042010202803  -0.000134129654387   0.000032739527635 1
force C   0.000061673269394   0.000038218373446   0.000068717339936 1
force C  -0.000018133229132   0.000035720544090  -0.000043121319071 1
force C  -0.000097048403053   0.000017896174764  -0.000047829901990 1
force C   0.000143536352839  -0.000224779161358  -0.000303178766155 1
force N  -0.000062968467230   0.000214595986140  -0.000036586843862 1
force N   0.000241556078350   0.000167602710695  -0.000014805376068 1
force N   0.000043132253868  -0.000150213147632  -0.000061613861422 1
force N   0.000033945345569  -0.000037773210098  -0.000051585991399 1
force Ti  -0.000384878348354  -0.000152795304495  -0.000086258911234 1
force O   0.000026395379670  -0.000097496267716   0.000220845561463 1
force O   0.000023142645269  -0.000302273519874   0.000093587812268 1
force H  -0.000021135688490  -0.000042606490076  -0.000139408673078 1

# Energy components:
   A_diel =       -0.0068386648126692
   Eewald =     1654.2191150113196727
       EH =     1967.1850484591027453
     Eloc =    -4153.8383875885838279
      Enl =       52.5424297102811408
     EvdW =       -0.0723627575658193
      Exc =     -109.1810075530163715
 Exc_core =        3.3095050096421694
       KE =      197.7380114852298334
-------------------------------------
     Etot =     -388.1044868884029597
       TS =        0.0005261154579428
-------------------------------------
        F =     -388.1050130038609041


Dumping 'jdft.fillings' ... done
Dumping 'jdft.wfns' ... done
Dumping 'jdft.fluidState' ... done
Dumping 'jdft.ionpos' ... done
Dumping 'jdft.lattice' ... done
Dumping 'jdft.eigenvals' ... done
Dumping 'jdft.eigStats' ... 
	eMin: -2.264518 at state 0 ( [ +0.000000 +0.000000 +0.000000 ] spin 1 )
	HOMO: -0.134893 at state 6 ( [ -0.333333 +0.000000 +0.000000 ] spin 1 )
	mu  : -0.133942
	LUMO: -0.133795 at state 2 ( [ +0.000000 -0.333333 +0.000000 ] spin 1 )
	eMax: +0.023083 at state 9 ( [ +0.000000 +0.000000 +0.000000 ] spin -1 )
	HOMO-LUMO gap: +0.001098
	Optical gap  : +0.012412 at state 4 ( [ +0.333333 +0.333333 +0.000000 ] spin 1 )
Dumping 'jdft.Ecomponents' ... done
IonicMinimize: Iter:   0  F: -388.105013003860904  |grad|_K:  9.142e-05  t[s]:  12979.64
IonicMinimize: Converged (|grad|_K<1.000000e-04).

#--- Lowdin population analysis ---
# oxidation-state C +0.038 +0.047 +0.038 +0.045 +0.037 +0.041 +0.165 +0.131 +0.027 +0.037 +0.039 +0.170 +0.024 +0.041 +0.047 +0.127 -0.005 +0.042 +0.034 +0.039 +0.028 +0.023 +0.025 +0.027 +0.038 +0.033 +0.042 -0.006 +0.132 +0.047 +0.041 +0.022 +0.171 +0.038 +0.037 +0.028 +0.122 +0.168 +0.041 +0.037 +0.045 +0.039 +0.046 +0.039 +0.175
# magnetic-moments C +0.001 +0.003 +0.003 +0.001 +0.000 +0.001 +0.005 +0.002 +0.003 +0.001 +0.001 +0.003 -0.001 +0.001 -0.001 -0.002 -0.003 +0.001 -0.001 -0.000 +0.005 +0.006 -0.002 +0.003 +0.002 -0.001 +0.000 -0.003 -0.000 -0.000 +0.001 +0.005 +0.003 +0.000 +0.000 +0.005 +0.001 +0.005 +0.000 +0.001 +0.001 -0.001 -0.000 -0.000 +0.036
# oxidation-state N -0.307 -0.311 -0.320 -0.316
# magnetic-moments N -0.007 -0.009 -0.007 -0.005
# oxidation-state Ti +1.387
# magnetic-moments Ti +0.472
# oxidation-state O -0.395 -0.425
# magnetic-moments O +0.008 +0.004
# oxidation-state H +0.499
# magnetic-moments H -0.000


Dumping 'jdft.n_up' ... done
Dumping 'jdft.n_dn' ... done
Dumping 'jdft.tau_up' ... done
Dumping 'jdft.tau_dn' ... done
Dumping 'jdft.eigenvals' ... done
Dumping 'jdft.eigStats' ... 
	eMin: -2.264518 at state 0 ( [ +0.000000 +0.000000 +0.000000 ] spin 1 )
	HOMO: -0.134893 at state 6 ( [ -0.333333 +0.000000 +0.000000 ] spin 1 )
	mu  : -0.133942
	LUMO: -0.133795 at state 2 ( [ +0.000000 -0.333333 +0.000000 ] spin 1 )
	eMax: +0.023083 at state 9 ( [ +0.000000 +0.000000 +0.000000 ] spin -1 )
	HOMO-LUMO gap: +0.001098
	Optical gap  : +0.012412 at state 4 ( [ +0.333333 +0.333333 +0.000000 ] spin 1 )
Dumping 'jdft.kPts' ... done
Dumping 'jdft.dosUp' ... done.
Dumping 'jdft.dosDn' ... done.
End date and time: Tue Mar 14 17:11:01 2023  (Duration: 0-3:38:02.90)
Done!

PROFILER:             augmentDensityGrid     0.873879 +/-     1.090127 s,  700 calls,    611.715420 s total
PROFILER:         augmentDensityGridGrad     0.564027 +/-     0.644674 s,  365 calls,    205.869811 s total
PROFILER:        augmentDensitySpherical     0.000569 +/-     0.000863 s,  700 calls,      0.398557 s total
PROFILER:    augmentDensitySphericalGrad     0.000582 +/-     0.001378 s,  595 calls,      0.346517 s total
PROFILER:                 augmentOverlap     1.744399 +/-     2.756602 s, 1520 calls,   2651.486697 s total
PROFILER:        ColumnBundle::randomize     0.006621 +/-     0.000000 s,    1 calls,      0.006621 s total
PROFILER:                     diagouterI    22.228596 +/-     4.840919 s,  143 calls,   3178.689199 s total
PROFILER:              EdensityAndVscloc     4.059244 +/-     6.196340 s,  141 calls,    572.353472 s total
PROFILER:                     EnlAndGrad     0.001534 +/-     0.002719 s,  770 calls,      1.180955 s total
PROFILER:            ExCorrCommunication     0.097461 +/-     0.141907 s,  859 calls,     83.718604 s total
PROFILER:               ExCorrFunctional     0.034868 +/-     0.004865 s,  145 calls,      5.055883 s total
PROFILER:                    ExCorrTotal     0.982959 +/-     0.324855 s,  145 calls,    142.529084 s total
PROFILER:                   Idag_DiagV_I    29.981934 +/-    19.649112 s,  118 calls,   3537.868204 s total
PROFILER:                    initWeights     2.506936 +/-     0.000000 s,    1 calls,      2.506936 s total
PROFILER:                    inv(matrix)     0.002525 +/-     0.000149 s,  104 calls,      0.262594 s total
PROFILER:            matrix::diagonalize     0.013704 +/-     0.007251 s,  257 calls,      3.521976 s total
PROFILER:                    matrix::set     0.000003 +/-     0.000003 s, 14903 calls,      0.037322 s total
PROFILER:            orthoMatrix(matrix)     0.002785 +/-     0.000787 s,  150 calls,      0.417680 s total
PROFILER:     RadialFunctionR::transform     0.025851 +/-     0.195292 s,  151 calls,      3.903434 s total
PROFILER:                    reduceKmesh     0.000001 +/-     0.000000 s,    1 calls,      0.000001 s total
PROFILER:   VanDerWaalsD3::energyAndGrad     0.042396 +/-     0.002298 s,    3 calls,      0.127189 s total
PROFILER:               WavefunctionDrag    20.896830 +/-     0.000000 s,    1 calls,     20.896830 s total
PROFILER:                            Y*M     0.797918 +/-     1.114827 s, 2750 calls,   2194.275479 s total
PROFILER:                          Y1^Y2     0.780647 +/-     1.125190 s, 1955 calls,   1526.163974 s total

MEMUSAGE:                   ColumnBundle     1.333771 GB
MEMUSAGE:        complexScalarFieldTilde     0.074158 GB
MEMUSAGE:                    IndexArrays     0.023178 GB
MEMUSAGE:                         matrix     0.020712 GB
MEMUSAGE:                           misc     0.051230 GB
MEMUSAGE:                    ScalarField     0.358429 GB
MEMUSAGE:               ScalarFieldTilde     0.262436 GB
MEMUSAGE:                          Total     1.613737 GB
