
*************** JDFTx 1.7.0 (git hash 5f12716a) ***************

Start date and time: Tue Nov 22 17:57:08 2022
Executable /home/nisi6161/jdftx_alpine/build/jdftx with command-line: -i in
Running on hosts (process indices):  c3cpu-a7-u32-4.rc.int.colorado.edu (0-17)
Divided in process groups (process indices):  0 (0)  1 (1)  2 (2)  3 (3)  4 (4)  5 (5)  6 (6)  7 (7)  8 (8)  9 (9)  10 (10)  11 (11)  12 (12)  13 (13)  14 (14)  15 (15)  16 (16)  17 (17)
Resource initialization completed at t[s]:      0.00
Run totals: 18 processes, 64 threads, 0 GPUs


Input parsed successfully to the following command list (including defaults):

basis kpoint-dependent
converge-empty-states yes
coords-type Cartesian
core-overlap-check none
coulomb-interaction Periodic
davidson-band-ratio 1.1
density-of-states Etol 1.000000e-06 Esigma 1.000000e-03 \
		Complete \
	Total \
	OrthoOrbital C 1   s \
	OrthoOrbital C 1   p \
	OrthoOrbital C 1   px \
	OrthoOrbital C 1   py \
	OrthoOrbital C 1   pz \
	OrthoOrbital C 2   s \
	OrthoOrbital C 2   p \
	OrthoOrbital C 2   px \
	OrthoOrbital C 2   py \
	OrthoOrbital C 2   pz \
	OrthoOrbital C 3   s \
	OrthoOrbital C 3   p \
	OrthoOrbital C 3   px \
	OrthoOrbital C 3   py \
	OrthoOrbital C 3   pz \
	OrthoOrbital C 4   s \
	OrthoOrbital C 4   p \
	OrthoOrbital C 4   px \
	OrthoOrbital C 4   py \
	OrthoOrbital C 4   pz \
	OrthoOrbital C 5   s \
	OrthoOrbital C 5   p \
	OrthoOrbital C 5   px \
	OrthoOrbital C 5   py \
	OrthoOrbital C 5   pz \
	OrthoOrbital C 6   s \
	OrthoOrbital C 6   p \
	OrthoOrbital C 6   px \
	OrthoOrbital C 6   py \
	OrthoOrbital C 6   pz \
	OrthoOrbital C 7   s \
	OrthoOrbital C 7   p \
	OrthoOrbital C 7   px \
	OrthoOrbital C 7   py \
	OrthoOrbital C 7   pz \
	OrthoOrbital C 8   s \
	OrthoOrbital C 8   p \
	OrthoOrbital C 8   px \
	OrthoOrbital C 8   py \
	OrthoOrbital C 8   pz \
	OrthoOrbital C 9   s \
	OrthoOrbital C 9   p \
	OrthoOrbital C 9   px \
	OrthoOrbital C 9   py \
	OrthoOrbital C 9   pz \
	OrthoOrbital C 10   s \
	OrthoOrbital C 10   p \
	OrthoOrbital C 10   px \
	OrthoOrbital C 10   py \
	OrthoOrbital C 10   pz \
	OrthoOrbital C 11   s \
	OrthoOrbital C 11   p \
	OrthoOrbital C 11   px \
	OrthoOrbital C 11   py \
	OrthoOrbital C 11   pz \
	OrthoOrbital C 12   s \
	OrthoOrbital C 12   p \
	OrthoOrbital C 12   px \
	OrthoOrbital C 12   py \
	OrthoOrbital C 12   pz \
	OrthoOrbital C 13   s \
	OrthoOrbital C 13   p \
	OrthoOrbital C 13   px \
	OrthoOrbital C 13   py \
	OrthoOrbital C 13   pz \
	OrthoOrbital C 14   s \
	OrthoOrbital C 14   p \
	OrthoOrbital C 14   px \
	OrthoOrbital C 14   py \
	OrthoOrbital C 14   pz \
	OrthoOrbital C 15   s \
	OrthoOrbital C 15   p \
	OrthoOrbital C 15   px \
	OrthoOrbital C 15   py \
	OrthoOrbital C 15   pz \
	OrthoOrbital C 16   s \
	OrthoOrbital C 16   p \
	OrthoOrbital C 16   px \
	OrthoOrbital C 16   py \
	OrthoOrbital C 16   pz \
	OrthoOrbital C 17   s \
	OrthoOrbital C 17   p \
	OrthoOrbital C 17   px \
	OrthoOrbital C 17   py \
	OrthoOrbital C 17   pz \
	OrthoOrbital C 18   s \
	OrthoOrbital C 18   p \
	OrthoOrbital C 18   px \
	OrthoOrbital C 18   py \
	OrthoOrbital C 18   pz \
	OrthoOrbital C 19   s \
	OrthoOrbital C 19   p \
	OrthoOrbital C 19   px \
	OrthoOrbital C 19   py \
	OrthoOrbital C 19   pz \
	OrthoOrbital C 20   s \
	OrthoOrbital C 20   p \
	OrthoOrbital C 20   px \
	OrthoOrbital C 20   py \
	OrthoOrbital C 20   pz \
	OrthoOrbital C 21   s \
	OrthoOrbital C 21   p \
	OrthoOrbital C 21   px \
	OrthoOrbital C 21   py \
	OrthoOrbital C 21   pz \
	OrthoOrbital C 22   s \
	OrthoOrbital C 22   p \
	OrthoOrbital C 22   px \
	OrthoOrbital C 22   py \
	OrthoOrbital C 22   pz \
	OrthoOrbital C 23   s \
	OrthoOrbital C 23   p \
	OrthoOrbital C 23   px \
	OrthoOrbital C 23   py \
	OrthoOrbital C 23   pz \
	OrthoOrbital C 24   s \
	OrthoOrbital C 24   p \
	OrthoOrbital C 24   px \
	OrthoOrbital C 24   py \
	OrthoOrbital C 24   pz \
	OrthoOrbital C 25   s \
	OrthoOrbital C 25   p \
	OrthoOrbital C 25   px \
	OrthoOrbital C 25   py \
	OrthoOrbital C 25   pz \
	OrthoOrbital C 26   s \
	OrthoOrbital C 26   p \
	OrthoOrbital C 26   px \
	OrthoOrbital C 26   py \
	OrthoOrbital C 26   pz \
	OrthoOrbital C 27   s \
	OrthoOrbital C 27   p \
	OrthoOrbital C 27   px \
	OrthoOrbital C 27   py \
	OrthoOrbital C 27   pz \
	OrthoOrbital C 28   s \
	OrthoOrbital C 28   p \
	OrthoOrbital C 28   px \
	OrthoOrbital C 28   py \
	OrthoOrbital C 28   pz \
	OrthoOrbital C 29   s \
	OrthoOrbital C 29   p \
	OrthoOrbital C 29   px \
	OrthoOrbital C 29   py \
	OrthoOrbital C 29   pz \
	OrthoOrbital C 30   s \
	OrthoOrbital C 30   p \
	OrthoOrbital C 30   px \
	OrthoOrbital C 30   py \
	OrthoOrbital C 30   pz \
	OrthoOrbital C 31   s \
	OrthoOrbital C 31   p \
	OrthoOrbital C 31   px \
	OrthoOrbital C 31   py \
	OrthoOrbital C 31   pz \
	OrthoOrbital C 32   s \
	OrthoOrbital C 32   p \
	OrthoOrbital C 32   px \
	OrthoOrbital C 32   py \
	OrthoOrbital C 32   pz \
	OrthoOrbital C 33   s \
	OrthoOrbital C 33   p \
	OrthoOrbital C 33   px \
	OrthoOrbital C 33   py \
	OrthoOrbital C 33   pz \
	OrthoOrbital C 34   s \
	OrthoOrbital C 34   p \
	OrthoOrbital C 34   px \
	OrthoOrbital C 34   py \
	OrthoOrbital C 34   pz \
	OrthoOrbital C 35   s \
	OrthoOrbital C 35   p \
	OrthoOrbital C 35   px \
	OrthoOrbital C 35   py \
	OrthoOrbital C 35   pz \
	OrthoOrbital C 36   s \
	OrthoOrbital C 36   p \
	OrthoOrbital C 36   px \
	OrthoOrbital C 36   py \
	OrthoOrbital C 36   pz \
	OrthoOrbital C 37   s \
	OrthoOrbital C 37   p \
	OrthoOrbital C 37   px \
	OrthoOrbital C 37   py \
	OrthoOrbital C 37   pz \
	OrthoOrbital C 38   s \
	OrthoOrbital C 38   p \
	OrthoOrbital C 38   px \
	OrthoOrbital C 38   py \
	OrthoOrbital C 38   pz \
	OrthoOrbital C 39   s \
	OrthoOrbital C 39   p \
	OrthoOrbital C 39   px \
	OrthoOrbital C 39   py \
	OrthoOrbital C 39   pz \
	OrthoOrbital C 40   s \
	OrthoOrbital C 40   p \
	OrthoOrbital C 40   px \
	OrthoOrbital C 40   py \
	OrthoOrbital C 40   pz \
	OrthoOrbital C 41   s \
	OrthoOrbital C 41   p \
	OrthoOrbital C 41   px \
	OrthoOrbital C 41   py \
	OrthoOrbital C 41   pz \
	OrthoOrbital C 42   s \
	OrthoOrbital C 42   p \
	OrthoOrbital C 42   px \
	OrthoOrbital C 42   py \
	OrthoOrbital C 42   pz \
	OrthoOrbital C 43   s \
	OrthoOrbital C 43   p \
	OrthoOrbital C 43   px \
	OrthoOrbital C 43   py \
	OrthoOrbital C 43   pz \
	OrthoOrbital C 44   s \
	OrthoOrbital C 44   p \
	OrthoOrbital C 44   px \
	OrthoOrbital C 44   py \
	OrthoOrbital C 44   pz \
	OrthoOrbital C 45   s \
	OrthoOrbital C 45   p \
	OrthoOrbital C 45   px \
	OrthoOrbital C 45   py \
	OrthoOrbital C 45   pz \
	OrthoOrbital N 1   s \
	OrthoOrbital N 1   p \
	OrthoOrbital N 1   px \
	OrthoOrbital N 1   py \
	OrthoOrbital N 1   pz \
	OrthoOrbital N 2   s \
	OrthoOrbital N 2   p \
	OrthoOrbital N 2   px \
	OrthoOrbital N 2   py \
	OrthoOrbital N 2   pz \
	OrthoOrbital N 3   s \
	OrthoOrbital N 3   p \
	OrthoOrbital N 3   px \
	OrthoOrbital N 3   py \
	OrthoOrbital N 3   pz \
	OrthoOrbital N 4   s \
	OrthoOrbital N 4   p \
	OrthoOrbital N 4   px \
	OrthoOrbital N 4   py \
	OrthoOrbital N 4   pz \
	OrthoOrbital Ti 1   s \
	OrthoOrbital Ti 1   p \
	OrthoOrbital Ti 1   px \
	OrthoOrbital Ti 1   py \
	OrthoOrbital Ti 1   pz \
	OrthoOrbital Ti 1   d \
	OrthoOrbital Ti 1   dxy \
	OrthoOrbital Ti 1   dyz \
	OrthoOrbital Ti 1   dz2 \
	OrthoOrbital Ti 1   dxz \
	OrthoOrbital Ti 1   dx2-y2 \
	OrthoOrbital O 1   s \
	OrthoOrbital O 1   p \
	OrthoOrbital O 1   px \
	OrthoOrbital O 1   py \
	OrthoOrbital O 1   pz \
	OrthoOrbital O 2   s \
	OrthoOrbital O 2   p \
	OrthoOrbital O 2   px \
	OrthoOrbital O 2   py \
	OrthoOrbital O 2   pz \
	OrthoOrbital O 3   s \
	OrthoOrbital O 3   p \
	OrthoOrbital O 3   px \
	OrthoOrbital O 3   py \
	OrthoOrbital O 3   pz \
	OrthoOrbital H 1   s \
	OrthoOrbital H 2   s \
	OrthoOrbital H 3   s \
	OrthoOrbital H 4   s
dump End ElecDensity KEdensity BandEigs EigStats RhoAtom DOS Kpoints
dump Ionic State IonicPositions Lattice EigStats Ecomponents
dump 
dump 
dump 
dump 
dump 
dump 
dump 
dump 
dump-name jdft.$VAR
elec-cutoff 20
elec-eigen-algo Davidson
elec-ex-corr gga-PBE
elec-initial-magnetization 0.000000 no
elec-n-bands 141
elec-smearing Fermi 0.001
electronic-minimize  \
	dirUpdateScheme      FletcherReeves \
	linminMethod         DirUpdateRecommended \
	nIterations          100 \
	history              15 \
	knormThreshold       0 \
	energyDiffThreshold  1e-07 \
	nEnergyDiff          2 \
	alphaTstart          1 \
	alphaTmin            1e-10 \
	updateTestStepSize   yes \
	alphaTreduceFactor   0.1 \
	alphaTincreaseFactor 3 \
	nAlphaAdjustMax      3 \
	wolfeEnergy          0.0001 \
	wolfeGradient        0.9 \
	fdTest               no
exchange-regularization WignerSeitzTruncated
fluid LinearPCM 298.000000 1.013250
fluid-anion F- 0.5 MeanFieldLJ \
	epsBulk 1 \
	pMol 0 \
	epsInf 1 \
	Pvap 0 \
	sigmaBulk 0 \
	Rvdw 2.24877 \
	Res 0 \
	tauNuc 343133
fluid-cation Na+ 0.5 MeanFieldLJ \
	epsBulk 1 \
	pMol 0 \
	epsInf 1 \
	Pvap 0 \
	sigmaBulk 0 \
	Rvdw 2.19208 \
	Res 0 \
	tauNuc 343133
fluid-ex-corr lda-TF lda-PZ
fluid-gummel-loop 10 1.000000e-05
fluid-minimize  \
	dirUpdateScheme      PolakRibiere \
	linminMethod         DirUpdateRecommended \
	nIterations          400 \
	history              15 \
	knormThreshold       1e-11 \
	energyDiffThreshold  0 \
	nEnergyDiff          2 \
	alphaTstart          1 \
	alphaTmin            1e-10 \
	updateTestStepSize   yes \
	alphaTreduceFactor   0.1 \
	alphaTincreaseFactor 3 \
	nAlphaAdjustMax      6 \
	wolfeEnergy          0.0001 \
	wolfeGradient        0.9 \
	fdTest               no
fluid-solvent H2O 55.338 ScalarEOS \
	epsBulk 78.4 \
	pMol 0.92466 \
	epsInf 1.77 \
	Pvap 1.06736e-10 \
	sigmaBulk 4.62e-05 \
	Rvdw 2.61727 \
	Res 1.42 \
	tauNuc 343133 \
	poleEl 15 7 1
forces-output-coords Positions
ion C  -0.000339000000000   0.090158000000000   0.027035000000000 0
ion C  21.034514999999999   4.041874000000000   0.042824000000000 0
ion C  18.687942000000003   8.042873000000000  43.224390000000007 0
ion C  -7.050694000000002  12.044127000000001  43.225860000000004 0
ion C  -9.377141000000002  16.052762000000005   0.011895000000000 0
ion C   4.679036000000001   0.174611000000000   0.054373000000000 0
ion C   2.281641000000000   4.206315000000001   0.205208000000000 0
ion C  -0.139316999999999   8.022831000000000   0.198590000000000 0
ion C  -2.432395999999999  12.023731000000000   0.056882000000000 0
ion C  -4.721792000000001  16.050491000000005   0.020677000000000 0
ion C   9.373443000000002   0.062680000000000   0.000908000000000 0
ion C   7.079137000000001   4.150505000000001   0.042694000000000 0
ion C  -0.020795000000000  15.948081000000002   0.094256000000000 0
ion C   2.337023000000000  19.929569000000004   0.020417000000000 0
ion C  11.749412000000000   4.029298000000001  43.230186000000010 0
ion C   9.456182999999999   8.026787000000002   0.040704000000000 0
ion C   4.666916999999998  15.841312000000004   0.149407000000000 0
ion C   6.990393000000001  19.940703000000003   0.015443000000000 0
ion C  16.391186000000005   4.017700000000000  43.230402000000005 0
ion C  14.081757000000000   8.038538000000003  43.230359000000007 0
ion C  11.769306000000000  12.041837000000003   0.038412000000000 0
ion C   9.373035000000002  15.998747000000002   0.015529000000000 0
ion C  -0.016988000000000   2.771959000000000   0.078813000000000 0
ion C  -2.435450000000000   6.694336000000001   0.039147000000000 0
ion C  -4.746924000000000  10.692708000000001  43.232306000000008 0
ion C  -7.049676000000002  14.715228000000003  43.255967000000005 0
ion C  -9.378234000000003  18.742197000000001   0.034302000000000 0
ion C   4.675447000000000   2.892753000000000   0.121810000000000 0
ion C  -0.134713000000000  10.694334000000000   0.209836000000000 0
ion C  -2.404919000000000  14.695412000000001   0.062938000000000 0
ion C  -4.724372000000000  18.736912000000000   0.022277000000000 0
ion C   9.382341000000000   2.741429000000001  43.235247000000008 0
ion C   2.282624999999999  14.517917000000004   0.227918000000000 0
ion C  -0.013143000000001  18.632694000000004   0.027727000000000 0
ion C  14.066799000000001   2.676853000000000  43.235593000000009 0
ion C  11.773301000000000   6.703330000000001  43.255145000000006 0
ion C   9.456214000000003  10.716143000000002   0.089714000000000 0
ion C   7.073657000000001  14.592599999999999   0.113461000000000 0
ion C   4.663644999999999  18.559794000000004   0.053984000000000 0
ion C  18.720417000000001   2.684935000000001   0.001384000000000 0
ion C  16.387083000000004   6.689136000000002  43.210721000000007 0
ion C  14.080981999999999  10.710017000000002  43.240395000000007 0
ion C  11.744928000000000  14.716171000000001   0.023142000000000 0
ion C   9.358264000000004  18.676200000000005   0.006056000000000 0
ion C   4.510778999999999   9.183292000000002   5.521798000000001 1
ion N   2.166088000000000  11.909770999999999   0.451423000000000 0
ion N   7.177215999999998  12.007767000000003   0.262393000000000 0
ion N   2.150769999999999   6.802979000000001   0.423739000000000 0
ion N   7.181220000000001   6.735477000000001   0.093044000000000 0
ion Ti   4.872806999999999   9.341601000000002   1.562980000000000 0
ion O   3.955672000000000  10.962183000000001   7.524349000000001 1
ion O   5.001872000000001   7.036637000000001   6.272987000000001 1
ion O   8.006914999999999  11.921039000000002   9.784708000000002 1
ion H   8.011922000000000  13.640727000000004  10.555838000000001 1
ion H   8.452159000000000  10.668946000000002  11.119035000000002 1
ion H   6.204614999999999  11.514274000000000   8.958426000000001 1
ion H   3.321934000000001  12.560857000000002   6.789554000000002 1
ion-species /projects/musgravc/apps/jdftx-1.6.0/build/pseudopotentials/GBRV_v1.5/$ID_pbe_v1.uspp
ion-species /projects/musgravc/apps/jdftx-1.6.0/build/pseudopotentials/GBRV_v1.5/$ID_pbe_v1.2.uspp
ion-species /projects/musgravc/apps/jdftx-1.6.0/build/pseudopotentials/GBRV_v1.5/$ID_pbe_v1.4.uspp
ion-species /projects/musgravc/apps/jdftx-1.6.0/build/pseudopotentials/GBRV_v1.5/$ID_pbe_v1.5.uspp
ion-width Ecut
ionic-minimize  \
	dirUpdateScheme      L-BFGS \
	linminMethod         DirUpdateRecommended \
	nIterations          0 \
	history              15 \
	knormThreshold       0.0001 \
	energyDiffThreshold  1e-06 \
	nEnergyDiff          2 \
	alphaTstart          1 \
	alphaTmin            1e-10 \
	updateTestStepSize   yes \
	alphaTreduceFactor   0.1 \
	alphaTincreaseFactor 3 \
	nAlphaAdjustMax      3 \
	wolfeEnergy          0.0001 \
	wolfeGradient        0.9 \
	fdTest               no
kpoint   0.000000000000   0.000000000000   0.000000000000  1.00000000000000
kpoint-folding 3 3 1 
latt-move-scale 0 0 0
latt-scale 1 1 1 
lattice  \
	  23.436261999999999  -11.733459000000000    0.000000000000000  \
	   0.017994000000000   19.941849000000001    0.000000000000000  \
	   0.000000000000000    0.000000000000000   43.256312999999999 
lattice-minimize  \
	dirUpdateScheme      L-BFGS \
	linminMethod         DirUpdateRecommended \
	nIterations          0 \
	history              15 \
	knormThreshold       0 \
	energyDiffThreshold  1e-06 \
	nEnergyDiff          2 \
	alphaTstart          1 \
	alphaTmin            1e-10 \
	updateTestStepSize   yes \
	alphaTreduceFactor   0.1 \
	alphaTincreaseFactor 3 \
	nAlphaAdjustMax      3 \
	wolfeEnergy          0.0001 \
	wolfeGradient        0.9 \
	fdTest               no
lcao-params 30 1e-06 0.001
pcm-variant CANDLE
spintype z-spin
subspace-rotation-factor 1 yes
symmetries none
symmetry-threshold 0.0001
target-mu -0.1272 no

van-der-waals D3
vibrations \
	dr 0.01\
	centralDiff no\
	useConstraints yes\
	translationSym yes\
	rotationSym no\
	omegaMin 0.0002\
	T 298\
	omegaResolution 0.0001


Applied RMS atom displacement 0 bohrs to make symmetries exact.
Applied RMS atom displacement 0 bohrs to make symmetries exact.

---------- Initializing the Grid ----------
R = 
[      23.4363     -11.7335            0  ]
[     0.017994      19.9418            0  ]
[            0            0      43.2563  ]
unit cell volume = 20225.5
G =
[   0.267976   0.157673         -0  ]
[ -0.000241801   0.314933          0  ]
[          0         -0   0.145255  ]
Minimum fftbox size, Smin = [  96  96  176  ]
Chosen fftbox size, S = [  96  96  180  ]

---------- Exchange Correlation functional ----------
Initalized PBE GGA exchange.
Initalized PBE GGA correlation.

---------- Setting up pseudopotentials ----------
Width of ionic core gaussian charges (only for fluid interactions / plotting) set to 0.397384

Reading pseudopotential file '/projects/musgravc/apps/jdftx-1.6.0/build/pseudopotentials/GBRV_v1.5/c_pbe_v1.2.uspp':
  Title: C.  Created by USPP 7.3.6 on 3-2-2014
  Reference state energy: -5.406344.  4 valence electrons in orbitals:
    |200>  occupation: 2  eigenvalue: -0.504890
    |210>  occupation: 2  eigenvalue: -0.194356
  lMax: 1  lLocal: 2  QijEcut: 5
  4 projectors sampled on a log grid with 503 points:
    l: 0  eig: -0.504890  rCut: 1.3
    l: 0  eig: 0.000000  rCut: 1.3
    l: 1  eig: -0.194357  rCut: 1.3
    l: 1  eig: 0.000000  rCut: 1.3
  Partial core density with radius 1.1
  Transforming core density to a uniform radial grid of dG=0.02 with 1464 points.
  Transforming local potential to a uniform radial grid of dG=0.02 with 1464 points.
  Transforming nonlocal projectors to a uniform radial grid of dG=0.02 with 432 points.
  Transforming density augmentations to a uniform radial grid of dG=0.02 with 1464 points.
  Transforming atomic orbitals to a uniform radial grid of dG=0.02 with 432 points.
  Core radius for overlap checks: 1.30 bohrs.

Reading pseudopotential file '/projects/musgravc/apps/jdftx-1.6.0/build/pseudopotentials/GBRV_v1.5/n_pbe_v1.2.uspp':
  Title: N.  Created by USPP 7.3.6 on 3-2-2014
  Reference state energy: -9.763716.  5 valence electrons in orbitals:
    |200>  occupation: 2  eigenvalue: -0.681964
    |210>  occupation: 3  eigenvalue: -0.260726
  lMax: 1  lLocal: 2  QijEcut: 6
  4 projectors sampled on a log grid with 491 points:
    l: 0  eig: -0.681964  rCut: 1.15
    l: 0  eig: 0.000000  rCut: 1.15
    l: 1  eig: -0.260729  rCut: 1.2
    l: 1  eig: 0.500000  rCut: 1.2
  Partial core density with radius 0.8
  Transforming core density to a uniform radial grid of dG=0.02 with 1464 points.
  Transforming local potential to a uniform radial grid of dG=0.02 with 1464 points.
  Transforming nonlocal projectors to a uniform radial grid of dG=0.02 with 432 points.
  Transforming density augmentations to a uniform radial grid of dG=0.02 with 1464 points.
  Transforming atomic orbitals to a uniform radial grid of dG=0.02 with 432 points.
  Core radius for overlap checks: 1.20 bohrs.

Reading pseudopotential file '/projects/musgravc/apps/jdftx-1.6.0/build/pseudopotentials/GBRV_v1.5/ti_pbe_v1.4.uspp':
  Title: Ti.  Created by USPP 7.3.6 on 31-3-15
  Reference state energy: -59.020943.  12 valence electrons in orbitals:
    |300>  occupation: 2  eigenvalue: -2.777623
    |310>  occupation: 6  eigenvalue: -1.894596
    |400>  occupation: 2  eigenvalue: -0.438610
    |320>  occupation: 1  eigenvalue: -0.583119
  lMax: 2  lLocal: 3  QijEcut: 6
  6 projectors sampled on a log grid with 597 points:
    l: 0  eig: -2.777624  rCut: 1.8
    l: 0  eig: -0.438611  rCut: 1.8
    l: 1  eig: -1.894596  rCut: 1.8
    l: 1  eig: 0.500000  rCut: 1.8
    l: 2  eig: -0.583118  rCut: 1.8
    l: 2  eig: 0.150000  rCut: 1.8
  Partial core density with radius 0.8
  Transforming core density to a uniform radial grid of dG=0.02 with 1464 points.
  Transforming local potential to a uniform radial grid of dG=0.02 with 1464 points.
  Transforming nonlocal projectors to a uniform radial grid of dG=0.02 with 432 points.
  Transforming density augmentations to a uniform radial grid of dG=0.02 with 1464 points.
  Transforming atomic orbitals to a uniform radial grid of dG=0.02 with 432 points.
  Core radius for overlap checks: 1.80 bohrs.

Reading pseudopotential file '/projects/musgravc/apps/jdftx-1.6.0/build/pseudopotentials/GBRV_v1.5/o_pbe_v1.2.uspp':
  Title: O.  Created by USPP 7.3.6 on 3-2-2014
  Reference state energy: -15.894388.  6 valence electrons in orbitals:
    |200>  occupation: 2  eigenvalue: -0.878823
    |210>  occupation: 4  eigenvalue: -0.332131
  lMax: 2  lLocal: 2  QijEcut: 6
  5 projectors sampled on a log grid with 511 points:
    l: 0  eig: -0.878823  rCut: 1.25
    l: 0  eig: 0.000000  rCut: 1.25
    l: 1  eig: -0.332132  rCut: 1.25
    l: 1  eig: 0.000000  rCut: 1.25
    l: 2  eig: 1.000000  rCut: 1.25
  Partial core density with radius 0.7
  Transforming core density to a uniform radial grid of dG=0.02 with 1464 points.
  Transforming local potential to a uniform radial grid of dG=0.02 with 1464 points.
  Transforming nonlocal projectors to a uniform radial grid of dG=0.02 with 432 points.
  Transforming density augmentations to a uniform radial grid of dG=0.02 with 1464 points.
  Transforming atomic orbitals to a uniform radial grid of dG=0.02 with 432 points.
  Core radius for overlap checks: 1.25 bohrs.

Reading pseudopotential file '/projects/musgravc/apps/jdftx-1.6.0/build/pseudopotentials/GBRV_v1.5/h_pbe_v1.4.uspp':
  Title: H.  Created by USPP 7.3.6 on 2-4-15
  Reference state energy: -0.458849.  1 valence electrons in orbitals:
    |100>  occupation: 1  eigenvalue: -0.238595
  lMax: 0  lLocal: 1  QijEcut: 6
  2 projectors sampled on a log grid with 395 points:
    l: 0  eig: -0.238595  rCut: 1.2
    l: 0  eig: 1.000000  rCut: 1.2
  Transforming local potential to a uniform radial grid of dG=0.02 with 1464 points.
  Transforming nonlocal projectors to a uniform radial grid of dG=0.02 with 432 points.
  Transforming density augmentations to a uniform radial grid of dG=0.02 with 1464 points.
  Transforming atomic orbitals to a uniform radial grid of dG=0.02 with 432 points.
  Core radius for overlap checks: 1.20 bohrs.

Initialized 5 species with 57 total atoms.

Folded 1 k-points by 3x3x1 to 9 k-points.

---------- Setting up k-points, bands, fillings ----------
No reducable k-points. 
Computing the number of bands and number of electrons
Calculating initial fillings.
nElectrons: 234.000000   nBands: 141   nStates: 18

----- Setting up reduced wavefunction bases (one per k-point) -----
average nbasis = 86412.556 , ideal nbasis = 86404.907

----- Initializing Supercell corresponding to k-point mesh -----
Lattice vector linear combinations in supercell:
[   3   0   0  ]
[   0   3   0  ]
[   0   0   1  ]
Supercell lattice vectors:
[  70.3088  -35.2004  0  ]
[  0.053982  59.8255  0  ]
[  0  0  43.2563  ]

Initializing DFT-D3 calculator:
	Parameters set for gga-PBE functional
	s6:  1.000  s_r6:  1.217
	s8:  0.722  s_r8:  1.000
	Per-atom parameters loaded for:
	 C:  sqrtQ[a0]:  3.105  Rcov[a0]:  1.417  CN: [ 0.00 0.99 2.00 3.00 3.98 ]
	 N:  sqrtQ[a0]:  2.712  Rcov[a0]:  1.342  CN: [ 0.00 0.99 2.01 2.99 ]
	Ti:  sqrtQ[a0]:  6.288  Rcov[a0]:  2.305  CN: [ 0.00 1.83 3.87 ]
	 O:  sqrtQ[a0]:  2.594  Rcov[a0]:  1.191  CN: [ 0.00 0.99 1.99 ]
	 H:  sqrtQ[a0]:  2.007  Rcov[a0]:  0.605  CN: [ 0.91 0.00 ]

Initializing DFT-D2 calculator for fluid / solvation:
	 C:  C6:   30.35 Eh-a0^6  R0: 2.744 a0
	 N:  C6:   21.33 Eh-a0^6  R0: 2.640 a0
	Ti:  C6:  187.33 Eh-a0^6  R0: 2.952 a0
	 O:  C6:   12.14 Eh-a0^6  R0: 2.536 a0
	 H:  C6:    2.43 Eh-a0^6  R0: 1.892 a0

---------- Setting up ewald sum ----------
Optimum gaussian width for ewald sums = 5.540693 bohr.
Real space sum over 567 unit cells with max indices [  4  4  3  ]
Reciprocal space sum over 7803 terms with max indices [  8  8  13  ]

Computing DFT-D3 correction:
# coordination-number C 3.301 3.324 3.337 3.332 3.313 3.291 3.321 3.534 3.329 3.313 3.303 3.338 3.300 3.301 3.322 3.746 3.270 3.303 3.321 3.334 3.327 3.306 3.303 3.332 3.337 3.321 3.301 3.271 3.532 3.322 3.303 3.306 3.315 3.301 3.313 3.327 3.745 3.334 3.292 3.315 3.333 3.334 3.322 3.304 2.991
# coordination-number N 3.171 3.186 3.176 3.186
# coordination-number Ti 6.857
# coordination-number O 2.143 1.165 2.931
# coordination-number H 0.989 0.989 1.078 1.002
# diagonal-C6 C 24.27 24.04 23.89 23.95 24.15 24.36 24.07 21.14 23.98 24.15 24.25 23.88 24.28 24.27 24.06 19.01 24.55 24.25 24.07 23.93 24.01 24.22 24.26 23.96 23.90 24.07 24.27 24.54 21.17 24.06 24.26 24.22 24.13 24.28 24.15 24.00 19.02 23.93 24.36 24.14 23.94 23.93 24.06 24.24 25.69
# diagonal-C6 N 15.60 15.60 15.60 15.60
# diagonal-C6 Ti 321.59
# diagonal-C6 O 10.38 12.65 10.37
# diagonal-C6 H 3.10 3.10 3.06 3.09
EvdW_6 =   -0.042963
EvdW_8 =   -0.033274

---------- Allocating electronic variables ----------
Initializing wave functions:  linear combination of atomic orbitals
C pseudo-atom occupations:   s ( 2 )  p ( 2 )
N pseudo-atom occupations:   s ( 2 )  p ( 3 )
Ti pseudo-atom occupations:   s ( 2 0 )  p ( 6 )  d ( 4 )
O pseudo-atom occupations:   s ( 2 )  p ( 4 )
H pseudo-atom occupations:   s ( 1 )
	FillingsUpdate:  mu: -0.127200000  nElectrons: 234.000000  magneticMoment: [ Abs: 0.00483  Tot: +0.00028 ]
LCAOMinimize: Iter:   0  G: -369.5859217608849008  |grad|_K:  1.297e-02  alpha:  1.000e+00
	FillingsUpdate:  mu: -0.127200000  nElectrons: 234.000000  magneticMoment: [ Abs: 0.00459  Tot: +0.00004 ]
LCAOMinimize: Iter:   1  G: -371.1482959968562341  |grad|_K:  2.350e-03  alpha:  3.518e-01  linmin: -1.957e-03  cgtest: -3.157e+00  t[s]:    380.61
	FillingsUpdate:  mu: -0.127200000  nElectrons: 234.000000  magneticMoment: [ Abs: 0.00459  Tot: +0.00004 ]
LCAOMinimize: Iter:   2  G: -371.2206429366449356  |grad|_K:  2.337e-03  alpha:  1.391e-02  linmin: -9.588e-02  cgtest:  9.689e-01  t[s]:    530.22
LCAOMinimize: 	Wrong curvature in test step, increasing alphaT to 4.171590e-02.
	FillingsUpdate:  mu: -0.127200000  nElectrons: 234.000000  magneticMoment: [ Abs: 0.00459  Tot: +0.00003 ]
LCAOMinimize: Iter:   3  G: -371.2907868399219637  |grad|_K:  2.288e-03  alpha: -1.848e+00  linmin: -1.846e-01  cgtest:  9.759e-01  t[s]:    676.60
	FillingsUpdate:  mu: -0.127200000  nElectrons: 234.000000  magneticMoment: [ Abs: 0.00461  Tot: +0.00001 ]
LCAOMinimize: Iter:   4  G: -371.5100302086956958  |grad|_K:  2.305e-03  alpha:  4.436e-02  linmin: -1.819e-01  cgtest:  8.547e-01  t[s]:    825.84
LCAOMinimize: 	Wrong curvature in test step, increasing alphaT to 1.330889e-01.
	FillingsUpdate:  mu: -0.127200000  nElectrons: 234.000000  magneticMoment: [ Abs: 0.00469  Tot: +0.00010 ]
LCAOMinimize: Iter:   5  G: -372.0591830380327565  |grad|_K:  3.906e-03  alpha: -1.830e-02  linmin: -1.418e-01  cgtest:  4.413e-01  t[s]:    972.22
LCAOMinimize: 	Step increased G by 1.062949e+01, reducing alpha to 1.257908e-02.
	FillingsUpdate:  mu: -0.127200000  nElectrons: 234.000000  magneticMoment: [ Abs: 0.00463  Tot: +0.00000 ]
LCAOMinimize: Iter:   6  G: -372.4674953892364329  |grad|_K:  1.581e-03  alpha:  1.258e-02  linmin: -4.791e-02  cgtest:  1.071e-01  t[s]:   1232.86
LCAOMinimize: 	Predicted alpha/alphaT>3.000000, increasing alphaT to 3.773724e-02.
LCAOMinimize: 	Predicted alpha/alphaT>3.000000, increasing alphaT to 1.132117e-01.
LCAOMinimize: 	Step increased G by 1.176059e+00, reducing alpha to 2.692483e-02.
	FillingsUpdate:  mu: -0.127200000  nElectrons: 234.000000  magneticMoment: [ Abs: 0.00463  Tot: -0.00000 ]
LCAOMinimize: Iter:   7  G: -372.5361965951047409  |grad|_K:  1.407e-03  alpha:  2.692e-02  linmin: -1.874e-01  cgtest:  9.803e-01  t[s]:   1570.38
LCAOMinimize: Encountered beta<0, resetting CG.
LCAOMinimize: 	Predicted alpha/alphaT>3.000000, increasing alphaT to 8.077450e-02.
LCAOMinimize: 	Predicted alpha/alphaT>3.000000, increasing alphaT to 2.423235e-01.
	FillingsUpdate:  mu: -0.127200000  nElectrons: 234.000000  magneticMoment: [ Abs: 0.00465  Tot: +0.00000 ]
LCAOMinimize: Iter:   8  G: -372.6900358900690549  |grad|_K:  7.108e-04  alpha:  1.107e-01  linmin: -1.820e-01  cgtest:  7.118e-01  t[s]:   1796.90
LCAOMinimize: Encountered beta<0, resetting CG.
	FillingsUpdate:  mu: -0.127200000  nElectrons: 234.000000  magneticMoment: [ Abs: 0.00471  Tot: -0.00001 ]
LCAOMinimize: Iter:   9  G: -372.7443436172498537  |grad|_K:  1.953e-04  alpha:  2.255e-01  linmin: -3.662e-02  cgtest:  3.752e-01  t[s]:   1946.80
LCAOMinimize: Encountered beta<0, resetting CG.
	FillingsUpdate:  mu: -0.127200000  nElectrons: 234.000000  magneticMoment: [ Abs: 0.00474  Tot: -0.00001 ]
LCAOMinimize: Iter:  10  G: -372.7468582807929920  |grad|_K:  1.700e-04  alpha:  1.521e-01  linmin:  4.242e-03  cgtest: -1.282e-01  t[s]:   2096.54
	FillingsUpdate:  mu: -0.127200000  nElectrons: 234.000000  magneticMoment: [ Abs: 0.00484  Tot: -0.00003 ]
LCAOMinimize: Iter:  11  G: -372.7496872871878963  |grad|_K:  8.146e-05  alpha:  2.499e-01  linmin:  7.279e-02  cgtest: -1.786e-01  t[s]:   2246.22
	FillingsUpdate:  mu: -0.127200000  nElectrons: 234.000000  magneticMoment: [ Abs: 0.00499  Tot: -0.00006 ]
LCAOMinimize: Iter:  12  G: -372.7501679169209297  |grad|_K:  9.182e-05  alpha:  4.694e-01  linmin:  1.893e-02  cgtest:  2.187e-01  t[s]:   2395.91
	FillingsUpdate:  mu: -0.127200000  nElectrons: 234.000000  magneticMoment: [ Abs: 0.00502  Tot: -0.00006 ]
LCAOMinimize: Iter:  13  G: -372.7503956493458190  |grad|_K:  5.144e-05  alpha:  9.893e-02  linmin:  3.472e-02  cgtest:  8.252e-02  t[s]:   2545.56
	FillingsUpdate:  mu: -0.127200000  nElectrons: 234.000000  magneticMoment: [ Abs: 0.00506  Tot: -0.00007 ]
LCAOMinimize: Iter:  14  G: -372.7505386024722611  |grad|_K:  3.057e-05  alpha:  1.408e-01  linmin: -1.678e-01  cgtest:  8.493e-01  t[s]:   2695.15
LCAOMinimize: Encountered beta<0, resetting CG.
	FillingsUpdate:  mu: -0.127200000  nElectrons: 234.000000  magneticMoment: [ Abs: 0.00508  Tot: -0.00008 ]
LCAOMinimize: Iter:  15  G: -372.7506568452116085  |grad|_K:  2.556e-05  alpha:  2.287e-01  linmin: -3.964e-02  cgtest:  5.282e-01  t[s]:   2844.73
LCAOMinimize: 	Predicted alpha/alphaT>3.000000, increasing alphaT to 6.859798e-01.
	FillingsUpdate:  mu: -0.127200000  nElectrons: 234.000000  magneticMoment: [ Abs: 0.00511  Tot: -0.00008 ]
LCAOMinimize: Iter:  16  G: -372.7507956836645917  |grad|_K:  3.745e-05  alpha:  2.271e-01  linmin:  1.592e-02  cgtest: -4.381e-01  t[s]:   3032.22
	FillingsUpdate:  mu: -0.127200000  nElectrons: 234.000000  magneticMoment: [ Abs: 0.00515  Tot: -0.00008 ]
LCAOMinimize: Iter:  17  G: -372.7508454153316393  |grad|_K:  4.371e-05  alpha:  8.355e-02  linmin:  2.349e-03  cgtest:  9.705e-01  t[s]:   3181.32
	FillingsUpdate:  mu: -0.127200000  nElectrons: 234.000000  magneticMoment: [ Abs: 0.00517  Tot: -0.00009 ]
LCAOMinimize: Iter:  18  G: -372.7508729441843229  |grad|_K:  1.576e-05  alpha:  4.574e-02  linmin: -6.926e-02  cgtest:  9.637e-01  t[s]:   3330.92
LCAOMinimize: Encountered beta<0, resetting CG.
LCAOMinimize: 	Step increased G by 2.295053e-08, reducing alpha to 1.931520e-03.
	FillingsUpdate:  mu: -0.127200000  nElectrons: 234.000000  magneticMoment: [ Abs: 0.00517  Tot: -0.00009 ]
LCAOMinimize: Iter:  19  G: -372.7508729921571557  |grad|_K:  1.536e-05  alpha:  1.932e-03  linmin: -9.751e-02  cgtest:  9.999e-01  t[s]:   3591.42
LCAOMinimize: Encountered beta<0, resetting CG.
	FillingsUpdate:  mu: -0.127200000  nElectrons: 234.000000  magneticMoment: [ Abs: 0.00517  Tot: -0.00009 ]
LCAOMinimize: Iter:  20  G: -372.7508730143964044  |grad|_K:  1.514e-05  alpha:  1.065e-03  linmin: -9.775e-02  cgtest:  9.999e-01  t[s]:   3740.79
LCAOMinimize: Encountered beta<0, resetting CG.
LCAOMinimize: Converged (|Delta G|<1.000000e-06 for 2 iters).
----- createFluidSolver() ----- (Fluid-side solver setup)
   Initializing fluid molecule 'H2O'
     Initializing site 'O'
       Electron density: proportional to exp(-r/0.36935)*erfc((r-0.51523)/0.36823) with norm 6.826
       Charge density: gaussian nuclear width 0.478731 with net site charge 0.826
       Polarizability: cuspless exponential with width 0.32 and norm 3.73
       Hard sphere radius: 2.57003 bohrs
       Positions in reference frame:
         [ +0.000000 +0.000000 +0.000000 ]
     Initializing site 'H'
       Electron density: proportional to exp(-r/0.34641)*erfc((r-0)/0.390882) with norm 0.587
       Charge density: gaussian nuclear width 0.377945 with net site charge -0.413
       Polarizability: cuspless exponential with width 0.39 and norm 3.3
       Positions in reference frame:
         [ +0.000000 -1.441945 +1.122523 ]
         [ +0.000000 +1.441945 +1.122523 ]
     Net charge: 0   dipole magnitude: 0.927204
     Initializing spherical shell mfKernel with radius 2.61727 Bohr
     deltaS corrections:
       site 'O': -7.54299
       site 'H': -6.83917
   Initializing fluid molecule 'Na+'
     Initializing site 'Na'
       Electron density: proportional to exp(-r/0.19682)*erfc((r-0.71491)/0.41314) with norm 8.1383
       Charge density: gaussian nuclear width 0.365347 with net site charge -1
       Hard sphere radius: 1.86327 bohrs
       Positions in reference frame:
         [ +0.000000 +0.000000 +0.000000 ]
     Net charge: -1   dipole magnitude: 0
     Initializing gaussian mfKernel with width: 1.55004 Bohr
     deltaS corrections:
       site 'Na': -22.3555
   Initializing fluid molecule 'F-'
     Initializing site 'F'
       Electron density: proportional to exp(-r/0.38886)*erfc((r-0)/0.438782) with norm 8
       Charge density: gaussian nuclear width 0.374796 with net site charge 1
       Hard sphere radius: 2.39995 bohrs
       Positions in reference frame:
         [ +0.000000 +0.000000 +0.000000 ]
     Net charge: 1   dipole magnitude: 0
     Initializing gaussian mfKernel with width: 1.59012 Bohr
     deltaS corrections:
       site 'F': -9.04335

Correction to mu due to finite nuclear width = -0.0114793
   Cavity determined by nc: 0.00142 and sigma: 0.707107
   Nonlocal vdW cavity from gaussian model electron density with norm = 8 and sigma = 0.993594 bohr
   Charge asymmetry in cavity with sensitivity pCavity = 36.5 e-bohr/Eh
   Electrostatic cavity expanded by eta = 1.46 bohrs
   Weighted density cavitation model constrained by Nbulk: 0.0049383 bohr^-3, Pvap: 3.14029 kPa, Rvdw: 2.61727 bohr and sigmaBulk: 4.62e-05 Eh/bohr^2 at T: 298 K.
   Weighted density dispersion model using vdW pair potentials with single solvent site with sqrtC6eff: 0.77 SI.
WARNING: Vibrations: switching off translationSym and rotationSym since useConstraints is on.

---- Citations for features of the code used in this run ----

   Software package:
      R. Sundararaman, K. Letchworth-Weaver, K.A. Schwarz, D. Gunceler, Y. Ozhabes and T.A. Arias, 'JDFTx: software for joint density-functional theory', SoftwareX 6, 278 (2017)

   gga-PBE exchange-correlation functional:
      J.P. Perdew, K. Burke and M. Ernzerhof, Phys. Rev. Lett. 77, 3865 (1996)

   Pseudopotentials:
      KF Garrity, JW Bennett, KM Rabe and D Vanderbilt, Comput. Mater. Sci. 81, 446 (2014)

   DFT-D3 dispersion correction:
      S. Grimme, J. Antony, S. Ehrlich and H. Krieg, J. Chem. Phys. 132, 154104 (2010)

   DFT-D2 dispersion correction:
      S. Grimme, J. Comput. Chem. 27, 1787 (2006)

   Charge-asymmetric nonlocally-determined local-electric (CANDLE) solvation model:
      R. Sundararaman and W.A. Goddard III, J. Chem. Phys. 142, 064107 (2015)

   Total energy minimization with Auxiliary Hamiltonian:
      C. Freysoldt, S. Boeck, and J. Neugebauer, Phys. Rev. B 79, 241103(R) (2009)

   Grand-canonical (fixed-potential) DFT:
      R. Sundararaman, W. A. Goddard III and T. A. Arias, J. Chem. Phys. 146, 114104 (2017)

   Linear-tetrahedron sampling for density of states:
      G. Lehmann and M. Taut, Phys. status solidi (b) 54, 469 (1972)

This list may not be complete. Please suggest additional citations or
report any other bugs at https://github.com/shankar1729/jdftx/issues

Initialization completed successfully at t[s]:   3761.61

------ Vibrations::calculate() -------
WARNING: Vibrations module is experimental. Please report bugs!
Compare results with and without symmetries and report discrepancies.
Degrees of freedom: 24 total, 24 symmetry-independent.

Computing DFT-D3 correction:
# coordination-number C 3.301 3.324 3.337 3.332 3.313 3.291 3.321 3.534 3.329 3.313 3.303 3.338 3.300 3.301 3.322 3.746 3.270 3.303 3.321 3.334 3.327 3.306 3.303 3.332 3.337 3.321 3.301 3.271 3.532 3.322 3.303 3.306 3.315 3.301 3.313 3.327 3.745 3.334 3.292 3.315 3.333 3.334 3.322 3.304 2.991
# coordination-number N 3.171 3.186 3.176 3.186
# coordination-number Ti 6.857
# coordination-number O 2.143 1.165 2.931
# coordination-number H 0.989 0.989 1.078 1.002
# diagonal-C6 C 24.27 24.04 23.89 23.95 24.15 24.36 24.07 21.14 23.98 24.15 24.25 23.88 24.28 24.27 24.06 19.01 24.55 24.25 24.07 23.93 24.01 24.22 24.26 23.96 23.90 24.07 24.27 24.54 21.17 24.06 24.26 24.22 24.13 24.28 24.15 24.00 19.02 23.93 24.36 24.14 23.94 23.93 24.06 24.24 25.69
# diagonal-C6 N 15.60 15.60 15.60 15.60
# diagonal-C6 Ti 321.59
# diagonal-C6 O 10.38 12.65 10.37
# diagonal-C6 H 3.10 3.10 3.06 3.09
EvdW_6 =   -0.042963
EvdW_8 =   -0.033274
Fluid solver invoked on fresh (random / LCAO) wavefunctions
Running a vacuum solve first:

-------- Initial electronic minimization -----------
	FillingsUpdate:  mu: -0.134456041  nElectrons: 234.000000  magneticMoment: [ Abs: 0.00517  Tot: -0.00009 ]
ElecMinimize: Iter:   0  G: -372.749134048891904  |grad|_K:  1.422e-04  alpha:  1.000e+00
	FillingsUpdate:  mu: -0.073719886  nElectrons: 234.000000  magneticMoment: [ Abs: 0.00320  Tot: -0.00014 ]
	SubspaceRotationAdjust: set factor to 1.01
ElecMinimize: Iter:   1  G: -375.750106247481085  |grad|_K:  5.113e-05  alpha:  6.842e-01  linmin:  1.785e-05  t[s]:   4007.35
	FillingsUpdate:  mu: -0.033707283  nElectrons: 234.000000  magneticMoment: [ Abs: 0.00353  Tot: -0.00078 ]
	SubspaceRotationAdjust: set factor to 0.675
ElecMinimize: Iter:   2  G: -375.812099268085831  |grad|_K:  6.743e-05  alpha:  1.203e-01  linmin:  1.955e-03  t[s]:   4157.01
ElecMinimize: 	Step increased G by 2.120093e-02, reducing alpha to 2.178198e-02.
	FillingsUpdate:  mu: -0.034328510  nElectrons: 234.000000  magneticMoment: [ Abs: 0.00347  Tot: -0.00083 ]
	SubspaceRotationAdjust: set factor to 0.485
ElecMinimize: Iter:   3  G: -375.842034235585800  |grad|_K:  5.725e-05  alpha:  2.178e-02  linmin: -3.516e-03  t[s]:   4405.44
ElecMinimize: 	Predicted alpha/alphaT>3.000000, increasing alphaT to 6.534593e-02.
	FillingsUpdate:  mu: -0.058832848  nElectrons: 234.000000  magneticMoment: [ Abs: 0.00271  Tot: -0.00034 ]
	SubspaceRotationAdjust: set factor to 0.224
ElecMinimize: Iter:   4  G: -375.987655972594325  |grad|_K:  2.311e-05  alpha:  1.139e-01  linmin: -2.332e-03  t[s]:   4593.28
ElecMinimize: 	Predicted alpha/alphaT>3.000000, increasing alphaT to 3.418274e-01.
	FillingsUpdate:  mu: -0.051905769  nElectrons: 234.000000  magneticMoment: [ Abs: 0.00269  Tot: -0.00051 ]
	SubspaceRotationAdjust: set factor to 0.351
ElecMinimize: Iter:   5  G: -376.007406222975760  |grad|_K:  1.718e-05  alpha:  7.121e-02  linmin: -6.018e-03  t[s]:   4780.95
ElecMinimize: 	Predicted alpha/alphaT>3.000000, increasing alphaT to 2.136366e-01.
	FillingsUpdate:  mu: -0.064901685  nElectrons: 234.000000  magneticMoment: [ Abs: 0.00392  Tot: -0.00311 ]
	SubspaceRotationAdjust: set factor to 0.197
ElecMinimize: Iter:   6  G: -376.033798209932627  |grad|_K:  3.896e-05  alpha:  2.791e-01  linmin:  1.013e-02  t[s]:   4969.08
ElecMinimize: 	Bad step direction: g.d > 0.
ElecMinimize: 	Undoing step.
ElecMinimize: 	Step failed: resetting search direction.
	FillingsUpdate:  mu: -0.064901685  nElectrons: 234.000000  magneticMoment: [ Abs: 0.00392  Tot: -0.00311 ]
	SubspaceRotationAdjust: set factor to 0.12
	SubspaceRotationAdjust: resetting CG because factor has changed by 0.120436
ElecMinimize: 	State modified externally: resetting search direction.
ElecMinimize: Iter:   7  G: -376.033798209932172  |grad|_K:  2.511e-05  alpha:  0.000e+00
	FillingsUpdate:  mu: -0.033857806  nElectrons: 234.000000  magneticMoment: [ Abs: 0.00287  Tot: -0.00170 ]
	SubspaceRotationAdjust: set factor to 0.118
ElecMinimize: Iter:   8  G: -376.064929426674155  |grad|_K:  9.772e-06  alpha:  2.405e-01  linmin: -1.642e-02  t[s]:   5315.15
	FillingsUpdate:  mu: -0.056550345  nElectrons: 234.000000  magneticMoment: [ Abs: 0.00242  Tot: -0.00122 ]
	SubspaceRotationAdjust: set factor to 0.101
ElecMinimize: Iter:   9  G: -376.081499885758546  |grad|_K:  9.391e-06  alpha:  6.934e-01  linmin:  9.964e-05  t[s]:   5465.32
	FillingsUpdate:  mu: -0.053051142  nElectrons: 234.000000  magneticMoment: [ Abs: 0.00241  Tot: -0.00137 ]
	SubspaceRotationAdjust: set factor to 0.131
ElecMinimize: Iter:  10  G: -376.093646707843959  |grad|_K:  5.379e-06  alpha:  6.307e-01  linmin:  8.512e-05  t[s]:   5615.14
	FillingsUpdate:  mu: -0.044729508  nElectrons: 234.000000  magneticMoment: [ Abs: 0.00298  Tot: -0.00231 ]
	SubspaceRotationAdjust: set factor to 0.173
ElecMinimize: Iter:  11  G: -376.098072963361517  |grad|_K:  3.133e-06  alpha:  7.029e-01  linmin:  4.455e-04  t[s]:   5765.03
	FillingsUpdate:  mu: -0.048559182  nElectrons: 234.000000  magneticMoment: [ Abs: 0.00381  Tot: -0.00337 ]
	SubspaceRotationAdjust: set factor to 0.155
ElecMinimize: Iter:  12  G: -376.099506435344495  |grad|_K:  3.475e-06  alpha:  6.817e-01  linmin:  5.041e-04  t[s]:   5915.20
	FillingsUpdate:  mu: -0.043906457  nElectrons: 234.000000  magneticMoment: [ Abs: 0.00453  Tot: -0.00405 ]
	SubspaceRotationAdjust: set factor to 0.17
ElecMinimize: Iter:  13  G: -376.100571823897042  |grad|_K:  2.247e-06  alpha:  4.279e-01  linmin: -5.090e-06  t[s]:   6065.46
	FillingsUpdate:  mu: -0.046841488  nElectrons: 234.000000  magneticMoment: [ Abs: 0.00594  Tot: -0.00535 ]
	SubspaceRotationAdjust: set factor to 0.188
ElecMinimize: Iter:  14  G: -376.101493450758880  |grad|_K:  2.152e-06  alpha:  8.290e-01  linmin: -2.196e-05  t[s]:   6215.85
	FillingsUpdate:  mu: -0.048394057  nElectrons: 234.000000  magneticMoment: [ Abs: 0.00771  Tot: -0.00713 ]
	SubspaceRotationAdjust: set factor to 0.153
ElecMinimize: Iter:  15  G: -376.101891480924735  |grad|_K:  1.677e-06  alpha:  3.774e-01  linmin: -9.044e-05  t[s]:   6365.76
	FillingsUpdate:  mu: -0.047550943  nElectrons: 234.000000  magneticMoment: [ Abs: 0.01091  Tot: -0.01023 ]
	SubspaceRotationAdjust: set factor to 0.154
ElecMinimize: Iter:  16  G: -376.102264725228792  |grad|_K:  1.342e-06  alpha:  5.928e-01  linmin:  3.293e-06  t[s]:   6515.79
	FillingsUpdate:  mu: -0.047344577  nElectrons: 234.000000  magneticMoment: [ Abs: 0.01493  Tot: -0.01415 ]
	SubspaceRotationAdjust: set factor to 0.164
ElecMinimize: Iter:  17  G: -376.102470870379932  |grad|_K:  1.056e-06  alpha:  5.222e-01  linmin:  2.205e-06  t[s]:   6665.59
	FillingsUpdate:  mu: -0.047966375  nElectrons: 234.000000  magneticMoment: [ Abs: 0.02079  Tot: -0.01993 ]
	SubspaceRotationAdjust: set factor to 0.136
ElecMinimize: Iter:  18  G: -376.102593219356095  |grad|_K:  8.166e-07  alpha:  4.994e-01  linmin:  3.871e-05  t[s]:   6815.39
	FillingsUpdate:  mu: -0.047862421  nElectrons: 234.000000  magneticMoment: [ Abs: 0.02680  Tot: -0.02578 ]
	SubspaceRotationAdjust: set factor to 0.121
ElecMinimize: Iter:  19  G: -376.102654533736484  |grad|_K:  6.070e-07  alpha:  4.223e-01  linmin: -1.250e-05  t[s]:   6965.53
	FillingsUpdate:  mu: -0.048055170  nElectrons: 234.000000  magneticMoment: [ Abs: 0.03827  Tot: -0.03701 ]
	SubspaceRotationAdjust: set factor to 0.142
ElecMinimize: Iter:  20  G: -376.102705696910846  |grad|_K:  4.790e-07  alpha:  6.309e-01  linmin: -4.618e-06  t[s]:   7115.54
	FillingsUpdate:  mu: -0.048285259  nElectrons: 234.000000  magneticMoment: [ Abs: 0.05480  Tot: -0.05328 ]
	SubspaceRotationAdjust: set factor to 0.132
ElecMinimize: Iter:  21  G: -376.102737318163349  |grad|_K:  4.920e-07  alpha:  6.275e-01  linmin:  5.889e-05  t[s]:   7265.55
	FillingsUpdate:  mu: -0.048182378  nElectrons: 234.000000  magneticMoment: [ Abs: 0.08585  Tot: -0.08378 ]
	SubspaceRotationAdjust: set factor to 0.161
ElecMinimize: Iter:  22  G: -376.102771509357467  |grad|_K:  5.313e-07  alpha:  6.503e-01  linmin: -2.615e-05  t[s]:   7415.51
	FillingsUpdate:  mu: -0.049496892  nElectrons: 234.000000  magneticMoment: [ Abs: 0.22762  Tot: -0.22290 ]
	SubspaceRotationAdjust: set factor to 0.171
ElecMinimize: Iter:  23  G: -376.102831214577293  |grad|_K:  1.358e-06  alpha:  1.853e+00  linmin:  1.094e-03  t[s]:   7565.54
ElecMinimize: 	Step increased G by 8.275650e-05, reducing alpha to 1.481005e-04.
ElecMinimize: 	Step increased G by 8.293985e-05, reducing alpha to 1.481005e-05.
ElecMinimize: 	Step increased G by 8.295895e-05, reducing alpha to 1.481005e-06.
ElecMinimize: 	Step failed to reduce G after 3 attempts. Quitting step.
ElecMinimize: 	Undoing step.
ElecMinimize: 	Step failed: resetting search direction.
	FillingsUpdate:  mu: -0.049673501  nElectrons: 234.000000  magneticMoment: [ Abs: 0.22641  Tot: -0.22291 ]
	SubspaceRotationAdjust: set factor to 0.19
ElecMinimize: Iter:  24  G: -376.102748255402901  |grad|_K:  1.535e-06  alpha:  1.481e-06
	FillingsUpdate:  mu: -0.048972413  nElectrons: 234.000000  magneticMoment: [ Abs: 0.23825  Tot: -0.23351 ]
	SubspaceRotationAdjust: set factor to 0.132
ElecMinimize: Iter:  25  G: -376.102977010085965  |grad|_K:  1.569e-06  alpha:  5.368e-01  linmin:  5.571e-03  t[s]:   8162.11
	FillingsUpdate:  mu: -0.050504565  nElectrons: 234.000000  magneticMoment: [ Abs: 0.28410  Tot: -0.27824 ]
	SubspaceRotationAdjust: set factor to 0.128
ElecMinimize: Iter:  26  G: -376.103159241707544  |grad|_K:  1.061e-06  alpha:  3.689e-01  linmin:  1.558e-04  t[s]:   8312.22
	FillingsUpdate:  mu: -0.050665472  nElectrons: 234.000000  magneticMoment: [ Abs: 0.31113  Tot: -0.30351 ]
	SubspaceRotationAdjust: set factor to 0.122
ElecMinimize: Iter:  27  G: -376.103274140274891  |grad|_K:  8.692e-07  alpha:  4.652e-01  linmin: -4.754e-04  t[s]:   8462.36
	FillingsUpdate:  mu: -0.049850477  nElectrons: 234.000000  magneticMoment: [ Abs: 0.31596  Tot: -0.30614 ]
	SubspaceRotationAdjust: set factor to 0.121
ElecMinimize: Iter:  28  G: -376.103340658148454  |grad|_K:  5.913e-07  alpha:  3.980e-01  linmin: -3.907e-04  t[s]:   8612.42
	FillingsUpdate:  mu: -0.049950207  nElectrons: 234.000000  magneticMoment: [ Abs: 0.32319  Tot: -0.31174 ]
	SubspaceRotationAdjust: set factor to 0.163
ElecMinimize: Iter:  29  G: -376.103374599362837  |grad|_K:  3.995e-07  alpha:  4.286e-01  linmin: -2.069e-04  t[s]:   8762.74
	FillingsUpdate:  mu: -0.050370068  nElectrons: 234.000000  magneticMoment: [ Abs: 0.33573  Tot: -0.32289 ]
	SubspaceRotationAdjust: set factor to 0.158
ElecMinimize: Iter:  30  G: -376.103394702609648  |grad|_K:  4.117e-07  alpha:  5.634e-01  linmin: -5.025e-05  t[s]:   8912.60
	FillingsUpdate:  mu: -0.050245279  nElectrons: 234.000000  magneticMoment: [ Abs: 0.34376  Tot: -0.32873 ]
	SubspaceRotationAdjust: set factor to 0.198
ElecMinimize: Iter:  31  G: -376.103412829716774  |grad|_K:  3.008e-07  alpha:  4.868e-01  linmin: -6.097e-05  t[s]:   9062.77
	FillingsUpdate:  mu: -0.050114573  nElectrons: 234.000000  magneticMoment: [ Abs: 0.35584  Tot: -0.33822 ]
	SubspaceRotationAdjust: set factor to 0.222
ElecMinimize: Iter:  32  G: -376.103427189994989  |grad|_K:  3.313e-07  alpha:  7.076e-01  linmin: -8.134e-05  t[s]:   9213.00
	FillingsUpdate:  mu: -0.050303475  nElectrons: 234.000000  magneticMoment: [ Abs: 0.37743  Tot: -0.35758 ]
	SubspaceRotationAdjust: set factor to 0.196
ElecMinimize: Iter:  33  G: -376.103438258860308  |grad|_K:  3.431e-07  alpha:  4.457e-01  linmin: -3.701e-06  t[s]:   9363.13
	FillingsUpdate:  mu: -0.050028734  nElectrons: 234.000000  magneticMoment: [ Abs: 0.41333  Tot: -0.38827 ]
	SubspaceRotationAdjust: set factor to 0.212
ElecMinimize: Iter:  34  G: -376.103455564792796  |grad|_K:  3.940e-07  alpha:  6.632e-01  linmin: -3.520e-05  t[s]:   9513.14
	FillingsUpdate:  mu: -0.049455801  nElectrons: 234.000000  magneticMoment: [ Abs: 0.53220  Tot: -0.49212 ]
	SubspaceRotationAdjust: set factor to 0.236
ElecMinimize: Iter:  35  G: -376.103496129581004  |grad|_K:  7.750e-07  alpha:  1.242e+00  linmin:  1.199e-04  t[s]:   9663.25
	FillingsUpdate:  mu: -0.049188066  nElectrons: 234.000000  magneticMoment: [ Abs: 0.66213  Tot: -0.60713 ]
	SubspaceRotationAdjust: set factor to 0.242
ElecMinimize: Iter:  36  G: -376.103554113350469  |grad|_K:  1.134e-06  alpha:  3.249e-01  linmin: -2.653e-04  t[s]:   9813.06
	FillingsUpdate:  mu: -0.047824997  nElectrons: 234.000000  magneticMoment: [ Abs: 1.01302  Tot: -0.92994 ]
	SubspaceRotationAdjust: set factor to 0.18
ElecMinimize: Iter:  37  G: -376.103672546379698  |grad|_K:  1.770e-06  alpha:  4.239e-01  linmin:  8.180e-04  t[s]:   9963.05
ElecMinimize: 	Bad step direction: g.d > 0.
ElecMinimize: 	Undoing step.
ElecMinimize: 	Step failed: resetting search direction.
	FillingsUpdate:  mu: -0.047824997  nElectrons: 234.000000  magneticMoment: [ Abs: 1.01302  Tot: -0.92994 ]
	SubspaceRotationAdjust: set factor to 0.149
ElecMinimize: Iter:  38  G: -376.103672546381006  |grad|_K:  1.612e-06  alpha:  0.000e+00
	FillingsUpdate:  mu: -0.049283669  nElectrons: 234.000000  magneticMoment: [ Abs: 0.98379  Tot: -0.88996 ]
	SubspaceRotationAdjust: set factor to 0.135
ElecMinimize: Iter:  39  G: -376.103999098260772  |grad|_K:  1.093e-06  alpha:  5.749e-01  linmin:  2.239e-04  t[s]:  10225.01
	FillingsUpdate:  mu: -0.049221354  nElectrons: 234.000000  magneticMoment: [ Abs: 1.03448  Tot: -0.93490 ]
	SubspaceRotationAdjust: set factor to 0.141
ElecMinimize: Iter:  40  G: -376.104257570951518  |grad|_K:  1.195e-06  alpha:  9.890e-01  linmin: -1.065e-04  t[s]:  10374.98
	FillingsUpdate:  mu: -0.048360312  nElectrons: 234.000000  magneticMoment: [ Abs: 1.11015  Tot: -0.99048 ]
	SubspaceRotationAdjust: set factor to 0.151
ElecMinimize: Iter:  41  G: -376.104636782311729  |grad|_K:  1.153e-06  alpha:  1.177e+00  linmin: -1.100e-04  t[s]:  10525.08
	FillingsUpdate:  mu: -0.048250777  nElectrons: 234.000000  magneticMoment: [ Abs: 1.16360  Tot: -1.03395 ]
	SubspaceRotationAdjust: set factor to 0.156
ElecMinimize: Iter:  42  G: -376.104828657522489  |grad|_K:  9.475e-07  alpha:  6.231e-01  linmin: -3.615e-05  t[s]:  10675.08
	FillingsUpdate:  mu: -0.048222913  nElectrons: 234.000000  magneticMoment: [ Abs: 1.18915  Tot: -1.04580 ]
	SubspaceRotationAdjust: set factor to 0.178
ElecMinimize: Iter:  43  G: -376.104949839200344  |grad|_K:  5.419e-07  alpha:  6.089e-01  linmin: -5.017e-05  t[s]:  10825.05
	FillingsUpdate:  mu: -0.048200741  nElectrons: 234.000000  magneticMoment: [ Abs: 1.20510  Tot: -1.05333 ]
	SubspaceRotationAdjust: set factor to 0.213
ElecMinimize: Iter:  44  G: -376.105004234420164  |grad|_K:  4.253e-07  alpha:  8.360e-01  linmin: -1.960e-05  t[s]:  10975.22
	FillingsUpdate:  mu: -0.048247984  nElectrons: 234.000000  magneticMoment: [ Abs: 1.21367  Tot: -1.05457 ]
	SubspaceRotationAdjust: set factor to 0.266
ElecMinimize: Iter:  45  G: -376.105028801385345  |grad|_K:  3.666e-07  alpha:  6.172e-01  linmin: -1.862e-08  t[s]:  11124.97
	FillingsUpdate:  mu: -0.048195110  nElectrons: 234.000000  magneticMoment: [ Abs: 1.22860  Tot: -1.05661 ]
	SubspaceRotationAdjust: set factor to 0.311
ElecMinimize: Iter:  46  G: -376.105053915409485  |grad|_K:  3.476e-07  alpha:  8.509e-01  linmin: -3.834e-06  t[s]:  11274.66
	FillingsUpdate:  mu: -0.048073170  nElectrons: 234.000000  magneticMoment: [ Abs: 1.24944  Tot: -1.07155 ]
	SubspaceRotationAdjust: set factor to 0.282
ElecMinimize: Iter:  47  G: -376.105067684261883  |grad|_K:  3.180e-07  alpha:  5.274e-01  linmin:  8.550e-06  t[s]:  11424.85
	FillingsUpdate:  mu: -0.048277911  nElectrons: 234.000000  magneticMoment: [ Abs: 1.25531  Tot: -1.06498 ]
	SubspaceRotationAdjust: set factor to 0.215
ElecMinimize: Iter:  48  G: -376.105077708393083  |grad|_K:  2.515e-07  alpha:  4.515e-01  linmin:  1.422e-05  t[s]:  11574.67
	FillingsUpdate:  mu: -0.048166199  nElectrons: 234.000000  magneticMoment: [ Abs: 1.27020  Tot: -1.07400 ]
	SubspaceRotationAdjust: set factor to 0.217
ElecMinimize: Iter:  49  G: -376.105084709603886  |grad|_K:  1.549e-07  alpha:  5.073e-01  linmin: -8.577e-06  t[s]:  11724.57
	FillingsUpdate:  mu: -0.048140078  nElectrons: 234.000000  magneticMoment: [ Abs: 1.27703  Tot: -1.07644 ]
	SubspaceRotationAdjust: set factor to 0.234
ElecMinimize: Iter:  50  G: -376.105088111701946  |grad|_K:  1.104e-07  alpha:  6.436e-01  linmin:  9.714e-07  t[s]:  11874.69
	FillingsUpdate:  mu: -0.048207331  nElectrons: 234.000000  magneticMoment: [ Abs: 1.27883  Tot: -1.07505 ]
	SubspaceRotationAdjust: set factor to 0.228
ElecMinimize: Iter:  51  G: -376.105089739744869  |grad|_K:  7.622e-08  alpha:  6.088e-01  linmin:  6.694e-07  t[s]:  12024.85
	FillingsUpdate:  mu: -0.048180957  nElectrons: 234.000000  magneticMoment: [ Abs: 1.28118  Tot: -1.07714 ]
	SubspaceRotationAdjust: set factor to 0.196
ElecMinimize: Iter:  52  G: -376.105090371345511  |grad|_K:  5.042e-08  alpha:  4.955e-01  linmin:  7.535e-07  t[s]:  12175.00
	FillingsUpdate:  mu: -0.048196897  nElectrons: 234.000000  magneticMoment: [ Abs: 1.28071  Tot: -1.07589 ]
	SubspaceRotationAdjust: set factor to 0.205
ElecMinimize: Iter:  53  G: -376.105090648909652  |grad|_K:  3.546e-08  alpha:  4.975e-01  linmin:  4.065e-07  t[s]:  12324.81
	FillingsUpdate:  mu: -0.048198355  nElectrons: 234.000000  magneticMoment: [ Abs: 1.28061  Tot: -1.07576 ]
	SubspaceRotationAdjust: set factor to 0.243
ElecMinimize: Iter:  54  G: -376.105090838483079  |grad|_K:  3.184e-08  alpha:  6.872e-01  linmin:  1.541e-06  t[s]:  12474.76
	FillingsUpdate:  mu: -0.048185413  nElectrons: 234.000000  magneticMoment: [ Abs: 1.28030  Tot: -1.07571 ]
	SubspaceRotationAdjust: set factor to 0.275
ElecMinimize: Iter:  55  G: -376.105091011346246  |grad|_K:  2.843e-08  alpha:  7.782e-01  linmin:  5.030e-07  t[s]:  12624.70
	FillingsUpdate:  mu: -0.048193891  nElectrons: 234.000000  magneticMoment: [ Abs: 1.27926  Tot: -1.07473 ]
	SubspaceRotationAdjust: set factor to 0.268
ElecMinimize: Iter:  56  G: -376.105091118120868  |grad|_K:  2.453e-08  alpha:  6.018e-01  linmin:  7.597e-07  t[s]:  12774.85
	FillingsUpdate:  mu: -0.048188574  nElectrons: 234.000000  magneticMoment: [ Abs: 1.27905  Tot: -1.07504 ]
	SubspaceRotationAdjust: set factor to 0.217
ElecMinimize: Iter:  57  G: -376.105091176045846  |grad|_K:  1.821e-08  alpha:  4.396e-01  linmin:  5.110e-07  t[s]:  12924.78
	FillingsUpdate:  mu: -0.048193231  nElectrons: 234.000000  magneticMoment: [ Abs: 1.27826  Tot: -1.07444 ]
	SubspaceRotationAdjust: set factor to 0.213
ElecMinimize: Iter:  58  G: -376.105091213290848  |grad|_K:  1.288e-08  alpha:  5.130e-01  linmin:  8.252e-07  t[s]:  13074.83
ElecMinimize: Converged (|Delta G|<1.000000e-07 for 2 iters).
Setting wave functions to eigenvectors of Hamiltonian
Converging empty states (this may take a while): |deigs|: 3.225e-03
Vacuum energy after initial minimize, F = -376.105091213290848

Shifting auxilliary hamiltonian by -0.079007 to set nElectrons=234.000000

-------- Electronic minimization -----------
	Linear fluid (dielectric constant: 78.4, screening length: 8.12261 Bohr) occupying 0.690556 of unit cell:	Completed after 23 iterations at t[s]:  13881.52
	FillingsUpdate:  mu: -0.127200000  nElectrons: 234.000000  magneticMoment: [ Abs: 1.27912  Tot: -1.07683 ]
ElecMinimize: Iter:   0  G: -376.115777570533965  |grad|_K:  2.938e-05  alpha:  1.000e+00
	Linear fluid (dielectric constant: 78.4, screening length: 8.12261 Bohr) occupying 0.700322 of unit cell:	Completed after 17 iterations at t[s]:  14028.44
	Linear fluid (dielectric constant: 78.4, screening length: 8.12261 Bohr) occupying 0.699910 of unit cell:	Completed after 10 iterations at t[s]:  14084.16
	FillingsUpdate:  mu: -0.127200000  nElectrons: 233.668593  magneticMoment: [ Abs: 0.99025  Tot: -0.78266 ]
	SubspaceRotationAdjust: set factor to 0.212
ElecMinimize: Iter:   1  G: -376.153566895518679  |grad|_K:  4.200e-06  alpha:  5.579e-01  linmin: -6.787e-03  t[s]:  14146.28
	Linear fluid (dielectric constant: 78.4, screening length: 8.12261 Bohr) occupying 0.700622 of unit cell:	Completed after 15 iterations at t[s]:  14212.03
	Linear fluid (dielectric constant: 78.4, screening length: 8.12261 Bohr) occupying 0.701099 of unit cell:	Completed after 13 iterations at t[s]:  14269.96
	FillingsUpdate:  mu: -0.127200000  nElectrons: 233.704378  magneticMoment: [ Abs: 0.97367  Tot: -0.75017 ]
	SubspaceRotationAdjust: set factor to 0.287
ElecMinimize: Iter:   2  G: -376.157603486550670  |grad|_K:  3.110e-06  alpha:  9.584e-01  linmin: -1.254e-03  t[s]:  14334.82
	Linear fluid (dielectric constant: 78.4, screening length: 8.12261 Bohr) occupying 0.701864 of unit cell:	Completed after 14 iterations at t[s]:  14401.71
	Linear fluid (dielectric constant: 78.4, screening length: 8.12261 Bohr) occupying 0.701778 of unit cell:	Completed after 5 iterations at t[s]:  14453.19
	FillingsUpdate:  mu: -0.127200000  nElectrons: 233.668025  magneticMoment: [ Abs: 0.97297  Tot: -0.78383 ]
	SubspaceRotationAdjust: set factor to 0.328
ElecMinimize: Iter:   3  G: -376.159643205153941  |grad|_K:  2.814e-06  alpha:  8.419e-01  linmin: -9.989e-05  t[s]:  14519.11
	Linear fluid (dielectric constant: 78.4, screening length: 8.12261 Bohr) occupying 0.702568 of unit cell:	Completed after 15 iterations at t[s]:  14586.75
	Linear fluid (dielectric constant: 78.4, screening length: 8.12261 Bohr) occupying 0.702323 of unit cell:	Completed after 11 iterations at t[s]:  14643.12
	FillingsUpdate:  mu: -0.127200000  nElectrons: 233.678279  magneticMoment: [ Abs: 0.96734  Tot: -0.77551 ]
	SubspaceRotationAdjust: set factor to 0.344
ElecMinimize: Iter:   4  G: -376.160647848759652  |grad|_K:  2.201e-06  alpha:  5.682e-01  linmin: -1.922e-05  t[s]:  14709.68
	Linear fluid (dielectric constant: 78.4, screening length: 8.12261 Bohr) occupying 0.702418 of unit cell:	Completed after 13 iterations at t[s]:  14776.00
	Linear fluid (dielectric constant: 78.4, screening length: 8.12261 Bohr) occupying 0.702420 of unit cell:	Completed after 2 iterations at t[s]:  14824.93
	FillingsUpdate:  mu: -0.127200000  nElectrons: 233.645954  magneticMoment: [ Abs: 0.97051  Tot: -0.80398 ]
	SubspaceRotationAdjust: set factor to 0.35
ElecMinimize: Iter:   5  G: -376.161271303526348  |grad|_K:  1.098e-06  alpha:  5.812e-01  linmin: -5.025e-05  t[s]:  14889.89
	Linear fluid (dielectric constant: 78.4, screening length: 8.12261 Bohr) occupying 0.702447 of unit cell:	Completed after 10 iterations at t[s]:  14953.40
	Linear fluid (dielectric constant: 78.4, screening length: 8.12261 Bohr) occupying 0.702455 of unit cell:	Completed after 7 iterations at t[s]:  15006.22
	FillingsUpdate:  mu: -0.127200000  nElectrons: 233.654159  magneticMoment: [ Abs: 0.96854  Tot: -0.79769 ]
	SubspaceRotationAdjust: set factor to 0.284
ElecMinimize: Iter:   6  G: -376.161483345785371  |grad|_K:  8.016e-07  alpha:  7.909e-01  linmin:  1.992e-05  t[s]:  15071.55
	Linear fluid (dielectric constant: 78.4, screening length: 8.12261 Bohr) occupying 0.702280 of unit cell:	Completed after 13 iterations at t[s]:  15137.81
	Linear fluid (dielectric constant: 78.4, screening length: 8.12261 Bohr) occupying 0.702370 of unit cell:	Completed after 10 iterations at t[s]:  15192.79
	FillingsUpdate:  mu: -0.127200000  nElectrons: 233.639840  magneticMoment: [ Abs: 0.97242  Tot: -0.81023 ]
	SubspaceRotationAdjust: set factor to 0.196
ElecMinimize: Iter:   7  G: -376.161536673786145  |grad|_K:  4.360e-07  alpha:  3.804e-01  linmin:  1.149e-05  t[s]:  15258.28
	Linear fluid (dielectric constant: 78.4, screening length: 8.12261 Bohr) occupying 0.702356 of unit cell:	Completed after 3 iterations at t[s]:  15316.34
	Linear fluid (dielectric constant: 78.4, screening length: 8.12261 Bohr) occupying 0.702349 of unit cell:	Completed after 2 iterations at t[s]:  15364.75
	FillingsUpdate:  mu: -0.127200000  nElectrons: 233.639191  magneticMoment: [ Abs: 0.97339  Tot: -0.81131 ]
	SubspaceRotationAdjust: set factor to 0.225
ElecMinimize: Iter:   8  G: -376.161561226090100  |grad|_K:  2.401e-07  alpha:  5.881e-01  linmin: -3.937e-05  t[s]:  15429.98
	Linear fluid (dielectric constant: 78.4, screening length: 8.12261 Bohr) occupying 0.702351 of unit cell:	Completed after 3 iterations at t[s]:  15488.07
	Linear fluid (dielectric constant: 78.4, screening length: 8.12261 Bohr) occupying 0.702351 of unit cell:	Completed after 0 iterations at t[s]:  15535.83
	FillingsUpdate:  mu: -0.127200000  nElectrons: 233.641543  magneticMoment: [ Abs: 0.97305  Tot: -0.80956 ]
	SubspaceRotationAdjust: set factor to 0.254
ElecMinimize: Iter:   9  G: -376.161569181624600  |grad|_K:  1.380e-07  alpha:  6.248e-01  linmin: -6.953e-05  t[s]:  15600.68
	Linear fluid (dielectric constant: 78.4, screening length: 8.12261 Bohr) occupying 0.702356 of unit cell:	Completed after 3 iterations at t[s]:  15658.83
	Linear fluid (dielectric constant: 78.4, screening length: 8.12261 Bohr) occupying 0.702355 of unit cell:	Completed after 0 iterations at t[s]:  15704.99
	FillingsUpdate:  mu: -0.127200000  nElectrons: 233.643566  magneticMoment: [ Abs: 0.97274  Tot: -0.80805 ]
	SubspaceRotationAdjust: set factor to 0.249
ElecMinimize: Iter:  10  G: -376.161571598137300  |grad|_K:  9.553e-08  alpha:  5.710e-01  linmin:  5.269e-05  t[s]:  15770.06
	Linear fluid (dielectric constant: 78.4, screening length: 8.12261 Bohr) occupying 0.702349 of unit cell:	Completed after 3 iterations at t[s]:  15828.09
	Linear fluid (dielectric constant: 78.4, screening length: 8.12261 Bohr) occupying 0.702350 of unit cell:	Completed after 0 iterations at t[s]:  15873.90
	FillingsUpdate:  mu: -0.127200000  nElectrons: 233.643188  magneticMoment: [ Abs: 0.97301  Tot: -0.80855 ]
	SubspaceRotationAdjust: set factor to 0.223
ElecMinimize: Iter:  11  G: -376.161572655696432  |grad|_K:  5.486e-08  alpha:  5.411e-01  linmin: -9.258e-05  t[s]:  15939.24
	Linear fluid (dielectric constant: 78.4, screening length: 8.12261 Bohr) occupying 0.702348 of unit cell:	Completed after 2 iterations at t[s]:  15996.98
	Linear fluid (dielectric constant: 78.4, screening length: 8.12261 Bohr) occupying 0.702348 of unit cell:	Completed after 0 iterations at t[s]:  16043.12
	FillingsUpdate:  mu: -0.127200000  nElectrons: 233.643587  magneticMoment: [ Abs: 0.97320  Tot: -0.80838 ]
	SubspaceRotationAdjust: set factor to 0.275
ElecMinimize: Iter:  12  G: -376.161573100836677  |grad|_K:  3.839e-08  alpha:  6.301e-01  linmin: -7.541e-05  t[s]:  16108.14
	Linear fluid (dielectric constant: 78.4, screening length: 8.12261 Bohr) occupying 0.702345 of unit cell:	Completed after 0 iterations at t[s]:  16163.70
	Linear fluid (dielectric constant: 78.4, screening length: 8.12261 Bohr) occupying 0.702344 of unit cell:	Completed after 1 iterations at t[s]:  16211.35
	FillingsUpdate:  mu: -0.127200000  nElectrons: 233.643495  magneticMoment: [ Abs: 0.97367  Tot: -0.80866 ]
	SubspaceRotationAdjust: set factor to 0.323
ElecMinimize: Iter:  13  G: -376.161573357021666  |grad|_K:  3.504e-08  alpha:  8.888e-01  linmin:  6.656e-05  t[s]:  16276.11
	Linear fluid (dielectric constant: 78.4, screening length: 8.12261 Bohr) occupying 0.702337 of unit cell:	Completed after 2 iterations at t[s]:  16333.17
	Linear fluid (dielectric constant: 78.4, screening length: 8.12261 Bohr) occupying 0.702339 of unit cell:	Completed after 0 iterations at t[s]:  16379.08
	FillingsUpdate:  mu: -0.127200000  nElectrons: 233.643099  magneticMoment: [ Abs: 0.97422  Tot: -0.80916 ]
	SubspaceRotationAdjust: set factor to 0.368
ElecMinimize: Iter:  14  G: -376.161573489038005  |grad|_K:  2.483e-08  alpha:  6.151e-01  linmin:  5.030e-06  t[s]:  16444.27
	Linear fluid (dielectric constant: 78.4, screening length: 8.12261 Bohr) occupying 0.702337 of unit cell:	Completed after 0 iterations at t[s]:  16499.14
	Linear fluid (dielectric constant: 78.4, screening length: 8.12261 Bohr) occupying 0.702337 of unit cell:	Completed after 0 iterations at t[s]:  16544.97
	FillingsUpdate:  mu: -0.127200000  nElectrons: 233.642691  magneticMoment: [ Abs: 0.97468  Tot: -0.80963 ]
	SubspaceRotationAdjust: set factor to 0.423
ElecMinimize: Iter:  15  G: -376.161573576337844  |grad|_K:  1.881e-08  alpha:  6.559e-01  linmin:  3.628e-07  t[s]:  16609.92
	Linear fluid (dielectric constant: 78.4, screening length: 8.12261 Bohr) occupying 0.702335 of unit cell:	Completed after 2 iterations at t[s]:  16668.14
	Linear fluid (dielectric constant: 78.4, screening length: 8.12261 Bohr) occupying 0.702336 of unit cell:	Completed after 0 iterations at t[s]:  16714.01
ElecMinimize: 	Step increased G by 2.724391e-09, reducing alpha to 2.948742e-02.
	Linear fluid (dielectric constant: 78.4, screening length: 8.12261 Bohr) occupying 0.702337 of unit cell:	Completed after 0 iterations at t[s]:  16820.77
ElecMinimize: 	Step increased G by 1.193945e-08, reducing alpha to 2.948742e-03.
	Linear fluid (dielectric constant: 78.4, screening length: 8.12261 Bohr) occupying 0.702337 of unit cell:	Completed after 0 iterations at t[s]:  16927.35
ElecMinimize: 	Step increased G by 1.354812e-08, reducing alpha to 2.948742e-04.
ElecMinimize: 	Step failed to reduce G after 3 attempts. Quitting step.
ElecMinimize: 	Undoing step.
	Linear fluid (dielectric constant: 78.4, screening length: 8.12261 Bohr) occupying 0.702337 of unit cell:	Completed after 0 iterations at t[s]:  17033.73
ElecMinimize: 	Step failed: resetting search direction.
	FillingsUpdate:  mu: -0.127200000  nElectrons: 233.642688  magneticMoment: [ Abs: 0.97468  Tot: -0.80963 ]
	SubspaceRotationAdjust: set factor to 0.428
ElecMinimize: Iter:  16  G: -376.161573562778699  |grad|_K:  2.435e-08  alpha:  2.949e-04
	Linear fluid (dielectric constant: 78.4, screening length: 8.12261 Bohr) occupying 0.702339 of unit cell:	Completed after 2 iterations at t[s]:  17155.93
	Linear fluid (dielectric constant: 78.4, screening length: 8.12261 Bohr) occupying 0.702338 of unit cell:	Completed after 0 iterations at t[s]:  17201.90
	FillingsUpdate:  mu: -0.127200000  nElectrons: 233.642855  magneticMoment: [ Abs: 0.97463  Tot: -0.80948 ]
	SubspaceRotationAdjust: set factor to 0.425
ElecMinimize: Iter:  17  G: -376.161573598610232  |grad|_K:  1.820e-08  alpha:  3.229e-01  linmin:  8.939e-05  t[s]:  17266.95
	Linear fluid (dielectric constant: 78.4, screening length: 8.12261 Bohr) occupying 0.702338 of unit cell:	Completed after 0 iterations at t[s]:  17322.55
	Linear fluid (dielectric constant: 78.4, screening length: 8.12261 Bohr) occupying 0.702340 of unit cell:	Completed after 1 iterations at t[s]:  17370.88
ElecMinimize: 	Step increased G by 5.273080e-09, reducing alpha to 9.663614e-02.
	Linear fluid (dielectric constant: 78.4, screening length: 8.12261 Bohr) occupying 0.702338 of unit cell:	Completed after 0 iterations at t[s]:  17478.25
	FillingsUpdate:  mu: -0.127200000  nElectrons: 233.642856  magneticMoment: [ Abs: 0.97465  Tot: -0.80948 ]
	SubspaceRotationAdjust: set factor to 0.333
ElecMinimize: Iter:  18  G: -376.161573618959778  |grad|_K:  1.878e-08  alpha:  9.664e-02  linmin: -4.766e-05  t[s]:  17542.88
ElecMinimize: Converged (|Delta G|<1.000000e-07 for 2 iters).
Setting wave functions to eigenvectors of Hamiltonian
Converging empty states (this may take a while): |deigs|: 4.730e-03
Single-point solvation energy estimate, DeltaG = -0.056482405668930

Computing DFT-D3 correction:
# coordination-number C 3.301 3.324 3.337 3.332 3.313 3.291 3.321 3.534 3.329 3.313 3.303 3.338 3.300 3.301 3.322 3.746 3.270 3.303 3.321 3.334 3.327 3.306 3.303 3.332 3.337 3.321 3.301 3.271 3.532 3.322 3.303 3.306 3.315 3.301 3.313 3.327 3.745 3.334 3.292 3.315 3.333 3.334 3.322 3.304 2.991
# coordination-number N 3.171 3.186 3.176 3.186
# coordination-number Ti 6.857
# coordination-number O 2.143 1.165 2.931
# coordination-number H 0.989 0.989 1.078 1.002
# diagonal-C6 C 24.27 24.04 23.89 23.95 24.15 24.36 24.07 21.14 23.98 24.15 24.25 23.88 24.28 24.27 24.06 19.01 24.55 24.25 24.07 23.93 24.01 24.22 24.26 23.96 23.90 24.07 24.27 24.54 21.17 24.06 24.26 24.22 24.13 24.28 24.15 24.00 19.02 23.93 24.36 24.14 23.94 23.93 24.06 24.24 25.69
# diagonal-C6 N 15.60 15.60 15.60 15.60
# diagonal-C6 Ti 321.59
# diagonal-C6 O 10.38 12.65 10.37
# diagonal-C6 H 3.10 3.10 3.06 3.09
EvdW_6 =   -0.042963
EvdW_8 =   -0.033274
Completed 1 of 25 configurations.

Computing DFT-D3 correction:
# coordination-number C 3.301 3.324 3.337 3.332 3.313 3.291 3.321 3.534 3.329 3.313 3.303 3.338 3.300 3.301 3.322 3.746 3.270 3.303 3.321 3.334 3.327 3.306 3.303 3.332 3.337 3.321 3.301 3.271 3.532 3.322 3.303 3.306 3.315 3.301 3.313 3.327 3.745 3.334 3.292 3.315 3.333 3.334 3.322 3.304 2.990
# coordination-number N 3.171 3.186 3.176 3.186
# coordination-number Ti 6.857
# coordination-number O 2.143 1.165 2.931
# coordination-number H 0.989 0.989 1.078 1.002
# diagonal-C6 C 24.27 24.04 23.89 23.95 24.15 24.36 24.07 21.14 23.98 24.15 24.25 23.88 24.28 24.27 24.06 19.01 24.55 24.25 24.07 23.93 24.01 24.22 24.26 23.96 23.90 24.07 24.27 24.54 21.17 24.06 24.26 24.22 24.13 24.28 24.15 24.00 19.02 23.93 24.36 24.14 23.94 23.93 24.06 24.24 25.69
# diagonal-C6 N 15.60 15.60 15.60 15.60
# diagonal-C6 Ti 321.59
# diagonal-C6 O 10.38 12.65 10.37
# diagonal-C6 H 3.10 3.10 3.06 3.09
EvdW_6 =   -0.042963
EvdW_8 =   -0.033275
Shifting auxilliary hamiltonian by -0.000014 to set nElectrons=233.642856

-------- Electronic minimization -----------
	Linear fluid (dielectric constant: 78.4, screening length: 8.12261 Bohr) occupying 0.702339 of unit cell:	Completed after 4 iterations at t[s]:  18907.45
	FillingsUpdate:  mu: -0.127200000  nElectrons: 233.642856  magneticMoment: [ Abs: 0.97432  Tot: -0.80937 ]
ElecMinimize: Iter:   0  G: -376.161546350591721  |grad|_K:  3.439e-07  alpha:  1.000e+00
	Linear fluid (dielectric constant: 78.4, screening length: 8.12261 Bohr) occupying 0.702363 of unit cell:	Completed after 7 iterations at t[s]:  19030.52
	Linear fluid (dielectric constant: 78.4, screening length: 8.12261 Bohr) occupying 0.702352 of unit cell:	Completed after 4 iterations at t[s]:  19078.54
	FillingsUpdate:  mu: -0.127200000  nElectrons: 233.646095  magneticMoment: [ Abs: 0.97373  Tot: -0.80666 ]
	SubspaceRotationAdjust: set factor to 0.278
ElecMinimize: Iter:   1  G: -376.161560949435113  |grad|_K:  2.550e-07  alpha:  5.589e-01  linmin:  8.019e-06  t[s]:  19143.17
	Linear fluid (dielectric constant: 78.4, screening length: 8.12261 Bohr) occupying 0.702327 of unit cell:	Completed after 7 iterations at t[s]:  19204.60
	Linear fluid (dielectric constant: 78.4, screening length: 8.12261 Bohr) occupying 0.702336 of unit cell:	Completed after 3 iterations at t[s]:  19254.26
	FillingsUpdate:  mu: -0.127200000  nElectrons: 233.642933  magneticMoment: [ Abs: 0.97451  Tot: -0.80926 ]
	SubspaceRotationAdjust: set factor to 0.275
ElecMinimize: Iter:   2  G: -376.161566048211512  |grad|_K:  1.178e-07  alpha:  3.622e-01  linmin:  1.401e-06  t[s]:  19318.97
	Linear fluid (dielectric constant: 78.4, screening length: 8.12261 Bohr) occupying 0.702336 of unit cell:	Completed after 2 iterations at t[s]:  19376.25
	Linear fluid (dielectric constant: 78.4, screening length: 8.12261 Bohr) occupying 0.702335 of unit cell:	Completed after 1 iterations at t[s]:  19424.16
	FillingsUpdate:  mu: -0.127200000  nElectrons: 233.643155  magneticMoment: [ Abs: 0.97429  Tot: -0.80896 ]
	SubspaceRotationAdjust: set factor to 0.371
ElecMinimize: Iter:   3  G: -376.161568838896017  |grad|_K:  7.322e-08  alpha:  9.040e-01  linmin: -1.531e-05  t[s]:  19489.00
	Linear fluid (dielectric constant: 78.4, screening length: 8.12261 Bohr) occupying 0.702340 of unit cell:	Completed after 2 iterations at t[s]:  19546.54
	Linear fluid (dielectric constant: 78.4, screening length: 8.12261 Bohr) occupying 0.702339 of unit cell:	Completed after 0 iterations at t[s]:  19593.28
	FillingsUpdate:  mu: -0.127200000  nElectrons: 233.643800  magneticMoment: [ Abs: 0.97406  Tot: -0.80837 ]
	SubspaceRotationAdjust: set factor to 0.42
ElecMinimize: Iter:   4  G: -376.161569720049329  |grad|_K:  4.991e-08  alpha:  7.243e-01  linmin:  3.464e-05  t[s]:  19658.04
	Linear fluid (dielectric constant: 78.4, screening length: 8.12261 Bohr) occupying 0.702335 of unit cell:	Completed after 2 iterations at t[s]:  19715.56
	Linear fluid (dielectric constant: 78.4, screening length: 8.12261 Bohr) occupying 0.702336 of unit cell:	Completed after 0 iterations at t[s]:  19761.63
	FillingsUpdate:  mu: -0.127200000  nElectrons: 233.643285  magneticMoment: [ Abs: 0.97415  Tot: -0.80877 ]
	SubspaceRotationAdjust: set factor to 0.369
ElecMinimize: Iter:   5  G: -376.161569977214981  |grad|_K:  4.722e-08  alpha:  5.103e-01  linmin:  2.975e-05  t[s]:  19826.41
	Linear fluid (dielectric constant: 78.4, screening length: 8.12261 Bohr) occupying 0.702339 of unit cell:	Completed after 3 iterations at t[s]:  19884.80
	Linear fluid (dielectric constant: 78.4, screening length: 8.12261 Bohr) occupying 0.702338 of unit cell:	Completed after 0 iterations at t[s]:  19930.83
	FillingsUpdate:  mu: -0.127200000  nElectrons: 233.643626  magneticMoment: [ Abs: 0.97406  Tot: -0.80847 ]
	SubspaceRotationAdjust: set factor to 0.243
ElecMinimize: Iter:   6  G: -376.161570112552340  |grad|_K:  4.432e-08  alpha:  2.816e-01  linmin:  8.917e-05  t[s]:  19995.71
	Linear fluid (dielectric constant: 78.4, screening length: 8.12261 Bohr) occupying 0.702337 of unit cell:	Completed after 2 iterations at t[s]:  20053.02
	Linear fluid (dielectric constant: 78.4, screening length: 8.12261 Bohr) occupying 0.702337 of unit cell:	Completed after 0 iterations at t[s]:  20099.22
	FillingsUpdate:  mu: -0.127200000  nElectrons: 233.643457  magneticMoment: [ Abs: 0.97409  Tot: -0.80860 ]
	SubspaceRotationAdjust: set factor to 0.197
ElecMinimize: Iter:   7  G: -376.161570140903450  |grad|_K:  1.717e-08  alpha:  1.786e-01  linmin: -8.740e-05  t[s]:  20164.06
	Linear fluid (dielectric constant: 78.4, screening length: 8.12261 Bohr) occupying 0.702337 of unit cell:	Completed after 0 iterations at t[s]:  20219.81
ElecMinimize: 	Predicted alpha/alphaT>3.000000, increasing alphaT to 5.358336e-01.
	Linear fluid (dielectric constant: 78.4, screening length: 8.12261 Bohr) occupying 0.702337 of unit cell:	Completed after 0 iterations at t[s]:  20266.21
	Linear fluid (dielectric constant: 78.4, screening length: 8.12261 Bohr) occupying 0.702337 of unit cell:	Completed after 0 iterations at t[s]:  20312.12
	FillingsUpdate:  mu: -0.127200000  nElectrons: 233.643416  magneticMoment: [ Abs: 0.97410  Tot: -0.80863 ]
	SubspaceRotationAdjust: set factor to 0.229
ElecMinimize: Iter:   8  G: -376.161570195635704  |grad|_K:  1.145e-08  alpha:  7.221e-01  linmin:  8.773e-07  t[s]:  20377.38
ElecMinimize: Converged (|Delta G|<1.000000e-07 for 2 iters).
Setting wave functions to eigenvectors of Hamiltonian
Converging empty states (this may take a while): |deigs|: 9.605e-08

Computing DFT-D3 correction:
# coordination-number C 3.301 3.324 3.337 3.332 3.313 3.291 3.321 3.534 3.329 3.313 3.303 3.338 3.300 3.301 3.322 3.746 3.270 3.303 3.321 3.334 3.327 3.306 3.303 3.332 3.337 3.321 3.301 3.271 3.532 3.322 3.303 3.306 3.315 3.301 3.313 3.327 3.745 3.334 3.292 3.315 3.333 3.334 3.322 3.304 2.990
# coordination-number N 3.171 3.186 3.176 3.186
# coordination-number Ti 6.857
# coordination-number O 2.143 1.165 2.931
# coordination-number H 0.989 0.989 1.078 1.002
# diagonal-C6 C 24.27 24.04 23.89 23.95 24.15 24.36 24.07 21.14 23.98 24.15 24.25 23.88 24.28 24.27 24.06 19.01 24.55 24.25 24.07 23.93 24.01 24.22 24.26 23.96 23.90 24.07 24.27 24.54 21.17 24.06 24.26 24.22 24.13 24.28 24.15 24.00 19.02 23.93 24.36 24.14 23.94 23.93 24.06 24.24 25.69
# diagonal-C6 N 15.60 15.60 15.60 15.60
# diagonal-C6 Ti 321.59
# diagonal-C6 O 10.38 12.65 10.37
# diagonal-C6 H 3.10 3.10 3.06 3.09
EvdW_6 =   -0.042963
EvdW_8 =   -0.033275
Completed 2 of 25 configurations.

Computing DFT-D3 correction:
# coordination-number C 3.301 3.324 3.337 3.332 3.313 3.291 3.321 3.534 3.329 3.313 3.303 3.338 3.300 3.301 3.322 3.746 3.270 3.303 3.321 3.334 3.327 3.306 3.303 3.332 3.337 3.321 3.301 3.271 3.532 3.322 3.303 3.306 3.315 3.301 3.313 3.327 3.745 3.334 3.292 3.315 3.333 3.334 3.322 3.304 2.991
# coordination-number N 3.171 3.186 3.176 3.186
# coordination-number Ti 6.857
# coordination-number O 2.144 1.165 2.931
# coordination-number H 0.989 0.989 1.078 1.002
# diagonal-C6 C 24.27 24.04 23.89 23.95 24.15 24.36 24.07 21.14 23.98 24.15 24.25 23.88 24.28 24.27 24.06 19.01 24.55 24.25 24.07 23.93 24.01 24.22 24.26 23.96 23.90 24.07 24.27 24.54 21.17 24.06 24.26 24.22 24.13 24.28 24.15 24.00 19.02 23.93 24.36 24.14 23.94 23.93 24.06 24.24 25.69
# diagonal-C6 N 15.60 15.60 15.60 15.60
# diagonal-C6 Ti 321.59
# diagonal-C6 O 10.38 12.65 10.37
# diagonal-C6 H 3.10 3.10 3.06 3.09
EvdW_6 =   -0.042963
EvdW_8 =   -0.033273
Shifting auxilliary hamiltonian by 0.000003 to set nElectrons=233.643416

-------- Electronic minimization -----------
	Linear fluid (dielectric constant: 78.4, screening length: 8.12261 Bohr) occupying 0.702357 of unit cell:	Completed after 7 iterations at t[s]:  20655.09
	FillingsUpdate:  mu: -0.127200000  nElectrons: 233.643416  magneticMoment: [ Abs: 0.97425  Tot: -0.80866 ]
ElecMinimize: Iter:   0  G: -376.161484733281611  |grad|_K:  6.126e-07  alpha:  1.000e+00
	Linear fluid (dielectric constant: 78.4, screening length: 8.12261 Bohr) occupying 0.702357 of unit cell:	Completed after 4 iterations at t[s]:  20785.82
	Linear fluid (dielectric constant: 78.4, screening length: 8.12261 Bohr) occupying 0.702357 of unit cell:	Completed after 2 iterations at t[s]:  20830.67
	FillingsUpdate:  mu: -0.127200000  nElectrons: 233.643688  magneticMoment: [ Abs: 0.97427  Tot: -0.80850 ]
	SubspaceRotationAdjust: set factor to 0.243
ElecMinimize: Iter:   1  G: -376.161536833912237  |grad|_K:  2.723e-07  alpha:  6.324e-01  linmin:  2.860e-05  t[s]:  20891.40
	Linear fluid (dielectric constant: 78.4, screening length: 8.12261 Bohr) occupying 0.702366 of unit cell:	Completed after 2 iterations at t[s]:  20945.06
	Linear fluid (dielectric constant: 78.4, screening length: 8.12261 Bohr) occupying 0.702367 of unit cell:	Completed after 2 iterations at t[s]:  20990.94
	FillingsUpdate:  mu: -0.127200000  nElectrons: 233.644516  magneticMoment: [ Abs: 0.97410  Tot: -0.80783 ]
	SubspaceRotationAdjust: set factor to 0.288
ElecMinimize: Iter:   2  G: -376.161548712294575  |grad|_K:  1.655e-07  alpha:  7.309e-01  linmin: -6.713e-05  t[s]:  21051.36
	Linear fluid (dielectric constant: 78.4, screening length: 8.12261 Bohr) occupying 0.702373 of unit cell:	Completed after 3 iterations at t[s]:  21105.52
	Linear fluid (dielectric constant: 78.4, screening length: 8.12261 Bohr) occupying 0.702375 of unit cell:	Completed after 0 iterations at t[s]:  21149.29
	FillingsUpdate:  mu: -0.127200000  nElectrons: 233.645603  magneticMoment: [ Abs: 0.97386  Tot: -0.80696 ]
	SubspaceRotationAdjust: set factor to 0.386
ElecMinimize: Iter:   3  G: -376.161554578225605  |grad|_K:  9.147e-08  alpha:  9.643e-01  linmin: -3.586e-04  t[s]:  21210.02
	Linear fluid (dielectric constant: 78.4, screening length: 8.12261 Bohr) occupying 0.702378 of unit cell:	Completed after 2 iterations at t[s]:  21263.66
	Linear fluid (dielectric constant: 78.4, screening length: 8.12261 Bohr) occupying 0.702377 of unit cell:	Completed after 0 iterations at t[s]:  21307.37
	FillingsUpdate:  mu: -0.127200000  nElectrons: 233.645969  magneticMoment: [ Abs: 0.97373  Tot: -0.80666 ]
	SubspaceRotationAdjust: set factor to 0.47
ElecMinimize: Iter:   4  G: -376.161556235239857  |grad|_K:  7.326e-08  alpha:  8.795e-01  linmin: -1.248e-04  t[s]:  21367.99
	Linear fluid (dielectric constant: 78.4, screening length: 8.12261 Bohr) occupying 0.702382 of unit cell:	Completed after 2 iterations at t[s]:  21421.60
	Linear fluid (dielectric constant: 78.4, screening length: 8.12261 Bohr) occupying 0.702380 of unit cell:	Completed after 1 iterations at t[s]:  21466.69
	FillingsUpdate:  mu: -0.127200000  nElectrons: 233.646490  magneticMoment: [ Abs: 0.97359  Tot: -0.80622 ]
	SubspaceRotationAdjust: set factor to 0.495
[...]
disp H  -0.005720971045122  -0.001489735910744  -0.000814975001862
disp H   0.003247191879796  -0.019718446582385   0.001794639735997
disp H  -0.002100851808488  -0.001563636519090  -0.002150768660146

Real mode 16:
Frequency: 0.009819 Eh [ 2155 cm^-1 ]
Degeneracy: 1 of 1
IR intensity: 12.3764 e^2/amu [ 12065.5 km/mol ]
Displacements:
disp C   0.000000000000000   0.000000000000000   0.000000000000000
disp C   0.000000000000000   0.000000000000000   0.000000000000000
disp C   0.000000000000000   0.000000000000000   0.000000000000000
disp C   0.000000000000000   0.000000000000000   0.000000000000000
disp C   0.000000000000000   0.000000000000000   0.000000000000000
disp C   0.000000000000000   0.000000000000000   0.000000000000000
disp C   0.000000000000000   0.000000000000000   0.000000000000000
disp C   0.000000000000000   0.000000000000000   0.000000000000000
disp C   0.000000000000000   0.000000000000000   0.000000000000000
disp C   0.000000000000000   0.000000000000000   0.000000000000000
disp C   0.000000000000000   0.000000000000000   0.000000000000000
disp C   0.000000000000000   0.000000000000000   0.000000000000000
disp C   0.000000000000000   0.000000000000000   0.000000000000000
disp C   0.000000000000000   0.000000000000000   0.000000000000000
disp C   0.000000000000000   0.000000000000000   0.000000000000000
disp C   0.000000000000000   0.000000000000000   0.000000000000000
disp C   0.000000000000000   0.000000000000000   0.000000000000000
disp C   0.000000000000000   0.000000000000000   0.000000000000000
disp C   0.000000000000000   0.000000000000000   0.000000000000000
disp C   0.000000000000000   0.000000000000000   0.000000000000000
disp C   0.000000000000000   0.000000000000000   0.000000000000000
disp C   0.000000000000000   0.000000000000000   0.000000000000000
disp C   0.000000000000000   0.000000000000000   0.000000000000000
disp C   0.000000000000000   0.000000000000000   0.000000000000000
disp C   0.000000000000000   0.000000000000000   0.000000000000000
disp C   0.000000000000000   0.000000000000000   0.000000000000000
disp C   0.000000000000000   0.000000000000000   0.000000000000000
disp C   0.000000000000000   0.000000000000000   0.000000000000000
disp C   0.000000000000000   0.000000000000000   0.000000000000000
disp C   0.000000000000000   0.000000000000000   0.000000000000000
disp C   0.000000000000000   0.000000000000000   0.000000000000000
disp C   0.000000000000000   0.000000000000000   0.000000000000000
disp C   0.000000000000000   0.000000000000000   0.000000000000000
disp C   0.000000000000000   0.000000000000000   0.000000000000000
disp C   0.000000000000000   0.000000000000000   0.000000000000000
disp C   0.000000000000000   0.000000000000000   0.000000000000000
disp C   0.000000000000000   0.000000000000000   0.000000000000000
disp C   0.000000000000000   0.000000000000000   0.000000000000000
disp C   0.000000000000000   0.000000000000000   0.000000000000000
disp C   0.000000000000000   0.000000000000000   0.000000000000000
disp C   0.000000000000000   0.000000000000000   0.000000000000000
disp C   0.000000000000000   0.000000000000000   0.000000000000000
disp C   0.000000000000000   0.000000000000000   0.000000000000000
disp C   0.000000000000000   0.000000000000000   0.000000000000000
disp C  -0.000165921006246   0.000607478236565   0.000302071378276
disp N   0.000000000000000   0.000000000000000   0.000000000000000
disp N   0.000000000000000   0.000000000000000   0.000000000000000
disp N   0.000000000000000   0.000000000000000   0.000000000000000
disp N   0.000000000000000   0.000000000000000   0.000000000000000
disp Ti   0.000000000000000   0.000000000000000   0.000000000000000
disp O  -0.000118782477948  -0.000309633148396  -0.000378747074557
disp O   0.000038526907604  -0.000175160058316   0.000002707958874
disp O   0.001469417889914   0.000415661336933   0.000848248909819
disp H  -0.000341014869218   0.000652253311869  -0.001375055495698
disp H  -0.000005828655804  -0.001259125978516  -0.001145141842324
disp H  -0.019944755151228  -0.004201319823080  -0.007965943189252
disp H  -0.000043823428335  -0.000122716591726  -0.001108091261803

Real mode 17:
Frequency: 0.016058 Eh [ 3524 cm^-1 ]
Degeneracy: 1 of 1
IR intensity: 1.5080 e^2/amu [ 1470.1 km/mol ]
Displacements:
disp C   0.000000000000000   0.000000000000000   0.000000000000000
disp C   0.000000000000000   0.000000000000000   0.000000000000000
disp C   0.000000000000000   0.000000000000000   0.000000000000000
disp C   0.000000000000000   0.000000000000000   0.000000000000000
disp C   0.000000000000000   0.000000000000000   0.000000000000000
disp C   0.000000000000000   0.000000000000000   0.000000000000000
disp C   0.000000000000000   0.000000000000000   0.000000000000000
disp C   0.000000000000000   0.000000000000000   0.000000000000000
disp C   0.000000000000000   0.000000000000000   0.000000000000000
disp C   0.000000000000000   0.000000000000000   0.000000000000000
disp C   0.000000000000000   0.000000000000000   0.000000000000000
disp C   0.000000000000000   0.000000000000000   0.000000000000000
disp C   0.000000000000000   0.000000000000000   0.000000000000000
disp C   0.000000000000000   0.000000000000000   0.000000000000000
disp C   0.000000000000000   0.000000000000000   0.000000000000000
disp C   0.000000000000000   0.000000000000000   0.000000000000000
disp C   0.000000000000000   0.000000000000000   0.000000000000000
disp C   0.000000000000000   0.000000000000000   0.000000000000000
disp C   0.000000000000000   0.000000000000000   0.000000000000000
disp C   0.000000000000000   0.000000000000000   0.000000000000000
disp C   0.000000000000000   0.000000000000000   0.000000000000000
disp C   0.000000000000000   0.000000000000000   0.000000000000000
disp C   0.000000000000000   0.000000000000000   0.000000000000000
disp C   0.000000000000000   0.000000000000000   0.000000000000000
disp C   0.000000000000000   0.000000000000000   0.000000000000000
disp C   0.000000000000000   0.000000000000000   0.000000000000000
disp C   0.000000000000000   0.000000000000000   0.000000000000000
disp C   0.000000000000000   0.000000000000000   0.000000000000000
disp C   0.000000000000000   0.000000000000000   0.000000000000000
disp C   0.000000000000000   0.000000000000000   0.000000000000000
disp C   0.000000000000000   0.000000000000000   0.000000000000000
disp C   0.000000000000000   0.000000000000000   0.000000000000000
disp C   0.000000000000000   0.000000000000000   0.000000000000000
disp C   0.000000000000000   0.000000000000000   0.000000000000000
disp C   0.000000000000000   0.000000000000000   0.000000000000000
disp C   0.000000000000000   0.000000000000000   0.000000000000000
disp C   0.000000000000000   0.000000000000000   0.000000000000000
disp C   0.000000000000000   0.000000000000000   0.000000000000000
disp C   0.000000000000000   0.000000000000000   0.000000000000000
disp C   0.000000000000000   0.000000000000000   0.000000000000000
disp C   0.000000000000000   0.000000000000000   0.000000000000000
disp C   0.000000000000000   0.000000000000000   0.000000000000000
disp C   0.000000000000000   0.000000000000000   0.000000000000000
disp C   0.000000000000000   0.000000000000000   0.000000000000000
disp C  -0.000005680445645   0.000035042407517  -0.000021432732625
disp N   0.000000000000000   0.000000000000000   0.000000000000000
disp N   0.000000000000000   0.000000000000000   0.000000000000000
disp N   0.000000000000000   0.000000000000000   0.000000000000000
disp N   0.000000000000000   0.000000000000000   0.000000000000000
disp Ti   0.000000000000000   0.000000000000000   0.000000000000000
disp O  -0.000014743859552   0.000003421174056  -0.000036868362178
disp O   0.000001246087655   0.000001395530362  -0.000006665168267
disp O   0.000080431370731   0.001025386063686   0.000796499960817
disp H  -0.000214033993166  -0.020231888182264  -0.008606090745429
disp H  -0.001649605652274   0.004071849381253  -0.003695279977492
disp H   0.000572915777996   0.000094725280015   0.000712878885513
disp H   0.000053000132204  -0.000299236047702   0.000125240693955

Real mode 18:
Frequency: 0.016301 Eh [ 3578 cm^-1 ]
Degeneracy: 1 of 1
IR intensity: 0.5910 e^2/amu [ 576.1 km/mol ]
Displacements:
disp C   0.000000000000000   0.000000000000000   0.000000000000000
disp C   0.000000000000000   0.000000000000000   0.000000000000000
disp C   0.000000000000000   0.000000000000000   0.000000000000000
disp C   0.000000000000000   0.000000000000000   0.000000000000000
disp C   0.000000000000000   0.000000000000000   0.000000000000000
disp C   0.000000000000000   0.000000000000000   0.000000000000000
disp C   0.000000000000000   0.000000000000000   0.000000000000000
disp C   0.000000000000000   0.000000000000000   0.000000000000000
disp C   0.000000000000000   0.000000000000000   0.000000000000000
disp C   0.000000000000000   0.000000000000000   0.000000000000000
disp C   0.000000000000000   0.000000000000000   0.000000000000000
disp C   0.000000000000000   0.000000000000000   0.000000000000000
disp C   0.000000000000000   0.000000000000000   0.000000000000000
disp C   0.000000000000000   0.000000000000000   0.000000000000000
disp C   0.000000000000000   0.000000000000000   0.000000000000000
disp C   0.000000000000000   0.000000000000000   0.000000000000000
disp C   0.000000000000000   0.000000000000000   0.000000000000000
disp C   0.000000000000000   0.000000000000000   0.000000000000000
disp C   0.000000000000000   0.000000000000000   0.000000000000000
disp C   0.000000000000000   0.000000000000000   0.000000000000000
disp C   0.000000000000000   0.000000000000000   0.000000000000000
disp C   0.000000000000000   0.000000000000000   0.000000000000000
disp C   0.000000000000000   0.000000000000000   0.000000000000000
disp C   0.000000000000000   0.000000000000000   0.000000000000000
disp C   0.000000000000000   0.000000000000000   0.000000000000000
disp C   0.000000000000000   0.000000000000000   0.000000000000000
disp C   0.000000000000000   0.000000000000000   0.000000000000000
disp C   0.000000000000000   0.000000000000000   0.000000000000000
disp C   0.000000000000000   0.000000000000000   0.000000000000000
disp C   0.000000000000000   0.000000000000000   0.000000000000000
disp C   0.000000000000000   0.000000000000000   0.000000000000000
disp C   0.000000000000000   0.000000000000000   0.000000000000000
disp C   0.000000000000000   0.000000000000000   0.000000000000000
disp C   0.000000000000000   0.000000000000000   0.000000000000000
disp C   0.000000000000000   0.000000000000000   0.000000000000000
disp C   0.000000000000000   0.000000000000000   0.000000000000000
disp C   0.000000000000000   0.000000000000000   0.000000000000000
disp C   0.000000000000000   0.000000000000000   0.000000000000000
disp C   0.000000000000000   0.000000000000000   0.000000000000000
disp C   0.000000000000000   0.000000000000000   0.000000000000000
disp C   0.000000000000000   0.000000000000000   0.000000000000000
disp C   0.000000000000000   0.000000000000000   0.000000000000000
disp C   0.000000000000000   0.000000000000000   0.000000000000000
disp C   0.000000000000000   0.000000000000000   0.000000000000000
disp C   0.000006343466533  -0.000011716225345   0.000002817475306
disp N   0.000000000000000   0.000000000000000   0.000000000000000
disp N   0.000000000000000   0.000000000000000   0.000000000000000
disp N   0.000000000000000   0.000000000000000   0.000000000000000
disp N   0.000000000000000   0.000000000000000   0.000000000000000
disp Ti   0.000000000000000   0.000000000000000   0.000000000000000
disp O   0.000013366489017  -0.000010740600887   0.000018447651792
disp O   0.000000836141136   0.000004295716342   0.000002592738553
disp O  -0.000328668771977   0.001241316911511  -0.000838207937610
disp H   0.000058751104488  -0.004768228704095  -0.002335704103158
disp H   0.005322601956819  -0.014754017566504   0.015243980055899
disp H  -0.000303275452565  -0.000190708489810  -0.000356032249342
disp H  -0.000071070133150   0.000253030874569  -0.000103324712833

Real mode 19:
Frequency: 0.016790 Eh [ 3685 cm^-1 ]
Degeneracy: 1 of 1
IR intensity: 1.5908 e^2/amu [ 1550.8 km/mol ]
Displacements:
disp C   0.000000000000000   0.000000000000000   0.000000000000000
disp C   0.000000000000000   0.000000000000000   0.000000000000000
disp C   0.000000000000000   0.000000000000000   0.000000000000000
disp C   0.000000000000000   0.000000000000000   0.000000000000000
disp C   0.000000000000000   0.000000000000000   0.000000000000000
disp C   0.000000000000000   0.000000000000000   0.000000000000000
disp C   0.000000000000000   0.000000000000000   0.000000000000000
disp C   0.000000000000000   0.000000000000000   0.000000000000000
disp C   0.000000000000000   0.000000000000000   0.000000000000000
disp C   0.000000000000000   0.000000000000000   0.000000000000000
disp C   0.000000000000000   0.000000000000000   0.000000000000000
disp C   0.000000000000000   0.000000000000000   0.000000000000000
disp C   0.000000000000000   0.000000000000000   0.000000000000000
disp C   0.000000000000000   0.000000000000000   0.000000000000000
disp C   0.000000000000000   0.000000000000000   0.000000000000000
disp C   0.000000000000000   0.000000000000000   0.000000000000000
disp C   0.000000000000000   0.000000000000000   0.000000000000000
disp C   0.000000000000000   0.000000000000000   0.000000000000000
disp C   0.000000000000000   0.000000000000000   0.000000000000000
disp C   0.000000000000000   0.000000000000000   0.000000000000000
disp C   0.000000000000000   0.000000000000000   0.000000000000000
disp C   0.000000000000000   0.000000000000000   0.000000000000000
disp C   0.000000000000000   0.000000000000000   0.000000000000000
disp C   0.000000000000000   0.000000000000000   0.000000000000000
disp C   0.000000000000000   0.000000000000000   0.000000000000000
disp C   0.000000000000000   0.000000000000000   0.000000000000000
disp C   0.000000000000000   0.000000000000000   0.000000000000000
disp C   0.000000000000000   0.000000000000000   0.000000000000000
disp C   0.000000000000000   0.000000000000000   0.000000000000000
disp C   0.000000000000000   0.000000000000000   0.000000000000000
disp C   0.000000000000000   0.000000000000000   0.000000000000000
disp C   0.000000000000000   0.000000000000000   0.000000000000000
disp C   0.000000000000000   0.000000000000000   0.000000000000000
disp C   0.000000000000000   0.000000000000000   0.000000000000000
disp C   0.000000000000000   0.000000000000000   0.000000000000000
disp C   0.000000000000000   0.000000000000000   0.000000000000000
disp C   0.000000000000000   0.000000000000000   0.000000000000000
disp C   0.000000000000000   0.000000000000000   0.000000000000000
disp C   0.000000000000000   0.000000000000000   0.000000000000000
disp C   0.000000000000000   0.000000000000000   0.000000000000000
disp C   0.000000000000000   0.000000000000000   0.000000000000000
disp C   0.000000000000000   0.000000000000000   0.000000000000000
disp C   0.000000000000000   0.000000000000000   0.000000000000000
disp C   0.000000000000000   0.000000000000000   0.000000000000000
disp C  -0.000007792285262   0.000043322070084   0.000005547725891
disp N   0.000000000000000   0.000000000000000   0.000000000000000
disp N   0.000000000000000   0.000000000000000   0.000000000000000
disp N   0.000000000000000   0.000000000000000   0.000000000000000
disp N   0.000000000000000   0.000000000000000   0.000000000000000
disp Ti   0.000000000000000   0.000000000000000   0.000000000000000
disp O  -0.000477763438902   0.001206272673427  -0.000564366713452
disp O   0.000002680542093  -0.000012155802137   0.000003331895247
disp O   0.000012966588253   0.000008429428491  -0.000003044623740
disp H   0.000041625236006   0.000222540039616   0.000115242050261
disp H   0.000100985210597  -0.000227228729484   0.000257076905844
disp H  -0.000322942680894  -0.000072224095278  -0.000278765035360
disp H   0.007826212486487  -0.019214879521252   0.009033899499094

Vibrational free energy components at T = 298 K:
	ZPE:          0.055269
	Evib:         0.058556
	TSvib:        0.005454
	Avib:         0.053101


Dumping 'jdft.n_up' ... done
Dumping 'jdft.n_dn' ... done
Dumping 'jdft.tau_up' ... done
Dumping 'jdft.tau_dn' ... done
Dumping 'jdft.eigenvals' ... done
Dumping 'jdft.eigStats' ... 
	eMin: -2.259904 at state 9 ( [ +0.000000 +0.000000 +0.000000 ] spin -1 )
	HOMO: -0.131622 at state 13 ( [ +0.333333 +0.333333 +0.000000 ] spin -1 )
	mu  : -0.127200
	LUMO: -0.126936 at state 0 ( [ +0.000000 +0.000000 +0.000000 ] spin 1 )
	eMax: +0.023077 at state 0 ( [ +0.000000 +0.000000 +0.000000 ] spin 1 )
	HOMO-LUMO gap: +0.004686
	Optical gap  : +0.012574 at state 10 ( [ +0.000000 +0.333333 +0.000000 ] spin -1 )
Dumping 'jdft.kPts' ... done
Dumping 'jdft.dosUp' ... done.
Dumping 'jdft.dosDn' ... done.
End date and time: Wed Nov 23 10:26:48 2022  (Duration: 0-16:29:39.79)
Done!

PROFILER:             augmentDensityGrid     0.845941 +/-     1.022791 s, 3170 calls,   2681.633628 s total
PROFILER:         augmentDensityGridGrad     0.595631 +/-     0.733498 s, 1845 calls,   1098.939802 s total
PROFILER:        augmentDensitySpherical     0.000573 +/-     0.000798 s, 3170 calls,      1.816452 s total
PROFILER:    augmentDensitySphericalGrad     0.000661 +/-     0.001444 s, 2385 calls,      1.577183 s total
PROFILER:                 augmentOverlap     1.799470 +/-     2.588225 s, 6885 calls,  12389.351929 s total
PROFILER:        ColumnBundle::randomize     0.006626 +/-     0.000000 s,    1 calls,      0.006626 s total
PROFILER:                     diagouterI    19.148860 +/-     3.153289 s,  637 calls,  12197.823567 s total
PROFILER:              EdensityAndVscloc     8.353471 +/-     5.070598 s,  635 calls,   5304.453856 s total
PROFILER:                     EnlAndGrad     0.001976 +/-     0.002949 s, 3595 calls,      7.104849 s total
PROFILER:            ExCorrCommunication     0.085022 +/-     0.091425 s, 4087 calls,    347.486940 s total
PROFILER:               ExCorrFunctional     0.026840 +/-     0.005611 s,  711 calls,     19.082915 s total
PROFILER:                    ExCorrTotal     0.816308 +/-     0.165834 s,  711 calls,    580.394800 s total
PROFILER:                   Idag_DiagV_I    33.597460 +/-    11.762765 s,  452 calls,  15186.052137 s total
PROFILER:                    initWeights     2.337141 +/-     0.000000 s,    1 calls,      2.337141 s total
PROFILER:                    inv(matrix)     0.003090 +/-     0.002364 s,  583 calls,      1.801412 s total
PROFILER:            matrix::diagonalize     0.011792 +/-     0.007577 s, 1059 calls,     12.487524 s total
PROFILER:                    matrix::set     0.000002 +/-     0.000003 s, 68910 calls,      0.165850 s total
PROFILER:            orthoMatrix(matrix)     0.002789 +/-     0.001294 s,  667 calls,      1.860357 s total
PROFILER:     RadialFunctionR::transform     0.023486 +/-     0.180115 s,  151 calls,      3.546338 s total
PROFILER:                    reduceKmesh     0.000000 +/-     0.000000 s,    1 calls,      0.000000 s total
PROFILER:   VanDerWaalsD3::energyAndGrad     0.045495 +/-     0.003103 s,   51 calls,      2.320233 s total
PROFILER:               WavefunctionDrag    35.500139 +/-     2.400188 s,   25 calls,    887.503487 s total
PROFILER:                            Y*M     0.826862 +/-     1.031514 s, 11958 calls,   9887.617864 s total
PROFILER:                          Y1^Y2     0.870379 +/-     1.063020 s, 8884 calls,   7732.451189 s total

MEMUSAGE:                   ColumnBundle     1.372431 GB
MEMUSAGE:        complexScalarFieldTilde     0.074158 GB
MEMUSAGE:                    IndexArrays     0.023178 GB
MEMUSAGE:                         matrix     0.020883 GB
MEMUSAGE:                           misc     0.051230 GB
MEMUSAGE:                    ScalarField     0.395508 GB
MEMUSAGE:               ScalarFieldTilde     0.262436 GB
MEMUSAGE:                          Total     1.689912 GB
