
*************** JDFTx 1.7.0 (git hash 5f12716a) ***************

Start date and time: Tue Mar 14 13:34:27 2023
Executable /home/nisi6161/jdftx_alpine/build/jdftx with command-line: -i in
Running on hosts (process indices):  c3cpu-c11-u34-4.rc.int.colorado.edu (0-17)
Divided in process groups (process indices):  0 (0)  1 (1)  2 (2)  3 (3)  4 (4)  5 (5)  6 (6)  7 (7)  8 (8)  9 (9)  10 (10)  11 (11)  12 (12)  13 (13)  14 (14)  15 (15)  16 (16)  17 (17)
Resource initialization completed at t[s]:      0.01
Run totals: 18 processes, 32 threads, 0 GPUs


Input parsed successfully to the following command list (including defaults):

basis kpoint-dependent
converge-empty-states yes
coords-type Cartesian
core-overlap-check none
coulomb-interaction Periodic
davidson-band-ratio 1.1
density-of-states Etol 1.000000e-06 Esigma 1.000000e-03 \
		Complete \
	Total \
	OrthoOrbital C 1   s \
	OrthoOrbital C 1   p \
	OrthoOrbital C 1   px \
	OrthoOrbital C 1   py \
	OrthoOrbital C 1   pz \
	OrthoOrbital C 2   s \
	OrthoOrbital C 2   p \
	OrthoOrbital C 2   px \
	OrthoOrbital C 2   py \
	OrthoOrbital C 2   pz \
	OrthoOrbital C 3   s \
	OrthoOrbital C 3   p \
	OrthoOrbital C 3   px \
	OrthoOrbital C 3   py \
	OrthoOrbital C 3   pz \
	OrthoOrbital C 4   s \
	OrthoOrbital C 4   p \
	OrthoOrbital C 4   px \
	OrthoOrbital C 4   py \
	OrthoOrbital C 4   pz \
	OrthoOrbital C 5   s \
	OrthoOrbital C 5   p \
	OrthoOrbital C 5   px \
	OrthoOrbital C 5   py \
	OrthoOrbital C 5   pz \
	OrthoOrbital C 6   s \
	OrthoOrbital C 6   p \
	OrthoOrbital C 6   px \
	OrthoOrbital C 6   py \
	OrthoOrbital C 6   pz \
	OrthoOrbital C 7   s \
	OrthoOrbital C 7   p \
	OrthoOrbital C 7   px \
	OrthoOrbital C 7   py \
	OrthoOrbital C 7   pz \
	OrthoOrbital C 8   s \
	OrthoOrbital C 8   p \
	OrthoOrbital C 8   px \
	OrthoOrbital C 8   py \
	OrthoOrbital C 8   pz \
	OrthoOrbital C 9   s \
	OrthoOrbital C 9   p \
	OrthoOrbital C 9   px \
	OrthoOrbital C 9   py \
	OrthoOrbital C 9   pz \
	OrthoOrbital C 10   s \
	OrthoOrbital C 10   p \
	OrthoOrbital C 10   px \
	OrthoOrbital C 10   py \
	OrthoOrbital C 10   pz \
	OrthoOrbital C 11   s \
	OrthoOrbital C 11   p \
	OrthoOrbital C 11   px \
	OrthoOrbital C 11   py \
	OrthoOrbital C 11   pz \
	OrthoOrbital C 12   s \
	OrthoOrbital C 12   p \
	OrthoOrbital C 12   px \
	OrthoOrbital C 12   py \
	OrthoOrbital C 12   pz \
	OrthoOrbital C 13   s \
	OrthoOrbital C 13   p \
	OrthoOrbital C 13   px \
	OrthoOrbital C 13   py \
	OrthoOrbital C 13   pz \
	OrthoOrbital C 14   s \
	OrthoOrbital C 14   p \
	OrthoOrbital C 14   px \
	OrthoOrbital C 14   py \
	OrthoOrbital C 14   pz \
	OrthoOrbital C 15   s \
	OrthoOrbital C 15   p \
	OrthoOrbital C 15   px \
	OrthoOrbital C 15   py \
	OrthoOrbital C 15   pz \
	OrthoOrbital C 16   s \
	OrthoOrbital C 16   p \
	OrthoOrbital C 16   px \
	OrthoOrbital C 16   py \
	OrthoOrbital C 16   pz \
	OrthoOrbital C 17   s \
	OrthoOrbital C 17   p \
	OrthoOrbital C 17   px \
	OrthoOrbital C 17   py \
	OrthoOrbital C 17   pz \
	OrthoOrbital C 18   s \
	OrthoOrbital C 18   p \
	OrthoOrbital C 18   px \
	OrthoOrbital C 18   py \
	OrthoOrbital C 18   pz \
	OrthoOrbital C 19   s \
	OrthoOrbital C 19   p \
	OrthoOrbital C 19   px \
	OrthoOrbital C 19   py \
	OrthoOrbital C 19   pz \
	OrthoOrbital C 20   s \
	OrthoOrbital C 20   p \
	OrthoOrbital C 20   px \
	OrthoOrbital C 20   py \
	OrthoOrbital C 20   pz \
	OrthoOrbital C 21   s \
	OrthoOrbital C 21   p \
	OrthoOrbital C 21   px \
	OrthoOrbital C 21   py \
	OrthoOrbital C 21   pz \
	OrthoOrbital C 22   s \
	OrthoOrbital C 22   p \
	OrthoOrbital C 22   px \
	OrthoOrbital C 22   py \
	OrthoOrbital C 22   pz \
	OrthoOrbital C 23   s \
	OrthoOrbital C 23   p \
	OrthoOrbital C 23   px \
	OrthoOrbital C 23   py \
	OrthoOrbital C 23   pz \
	OrthoOrbital C 24   s \
	OrthoOrbital C 24   p \
	OrthoOrbital C 24   px \
	OrthoOrbital C 24   py \
	OrthoOrbital C 24   pz \
	OrthoOrbital C 25   s \
	OrthoOrbital C 25   p \
	OrthoOrbital C 25   px \
	OrthoOrbital C 25   py \
	OrthoOrbital C 25   pz \
	OrthoOrbital C 26   s \
	OrthoOrbital C 26   p \
	OrthoOrbital C 26   px \
	OrthoOrbital C 26   py \
	OrthoOrbital C 26   pz \
	OrthoOrbital C 27   s \
	OrthoOrbital C 27   p \
	OrthoOrbital C 27   px \
	OrthoOrbital C 27   py \
	OrthoOrbital C 27   pz \
	OrthoOrbital C 28   s \
	OrthoOrbital C 28   p \
	OrthoOrbital C 28   px \
	OrthoOrbital C 28   py \
	OrthoOrbital C 28   pz \
	OrthoOrbital C 29   s \
	OrthoOrbital C 29   p \
	OrthoOrbital C 29   px \
	OrthoOrbital C 29   py \
	OrthoOrbital C 29   pz \
	OrthoOrbital C 30   s \
	OrthoOrbital C 30   p \
	OrthoOrbital C 30   px \
	OrthoOrbital C 30   py \
	OrthoOrbital C 30   pz \
	OrthoOrbital C 31   s \
	OrthoOrbital C 31   p \
	OrthoOrbital C 31   px \
	OrthoOrbital C 31   py \
	OrthoOrbital C 31   pz \
	OrthoOrbital C 32   s \
	OrthoOrbital C 32   p \
	OrthoOrbital C 32   px \
	OrthoOrbital C 32   py \
	OrthoOrbital C 32   pz \
	OrthoOrbital C 33   s \
	OrthoOrbital C 33   p \
	OrthoOrbital C 33   px \
	OrthoOrbital C 33   py \
	OrthoOrbital C 33   pz \
	OrthoOrbital C 34   s \
	OrthoOrbital C 34   p \
	OrthoOrbital C 34   px \
	OrthoOrbital C 34   py \
	OrthoOrbital C 34   pz \
	OrthoOrbital C 35   s \
	OrthoOrbital C 35   p \
	OrthoOrbital C 35   px \
	OrthoOrbital C 35   py \
	OrthoOrbital C 35   pz \
	OrthoOrbital C 36   s \
	OrthoOrbital C 36   p \
	OrthoOrbital C 36   px \
	OrthoOrbital C 36   py \
	OrthoOrbital C 36   pz \
	OrthoOrbital C 37   s \
	OrthoOrbital C 37   p \
	OrthoOrbital C 37   px \
	OrthoOrbital C 37   py \
	OrthoOrbital C 37   pz \
	OrthoOrbital C 38   s \
	OrthoOrbital C 38   p \
	OrthoOrbital C 38   px \
	OrthoOrbital C 38   py \
	OrthoOrbital C 38   pz \
	OrthoOrbital C 39   s \
	OrthoOrbital C 39   p \
	OrthoOrbital C 39   px \
	OrthoOrbital C 39   py \
	OrthoOrbital C 39   pz \
	OrthoOrbital C 40   s \
	OrthoOrbital C 40   p \
	OrthoOrbital C 40   px \
	OrthoOrbital C 40   py \
	OrthoOrbital C 40   pz \
	OrthoOrbital C 41   s \
	OrthoOrbital C 41   p \
	OrthoOrbital C 41   px \
	OrthoOrbital C 41   py \
	OrthoOrbital C 41   pz \
	OrthoOrbital C 42   s \
	OrthoOrbital C 42   p \
	OrthoOrbital C 42   px \
	OrthoOrbital C 42   py \
	OrthoOrbital C 42   pz \
	OrthoOrbital C 43   s \
	OrthoOrbital C 43   p \
	OrthoOrbital C 43   px \
	OrthoOrbital C 43   py \
	OrthoOrbital C 43   pz \
	OrthoOrbital C 44   s \
	OrthoOrbital C 44   p \
	OrthoOrbital C 44   px \
	OrthoOrbital C 44   py \
	OrthoOrbital C 44   pz \
	OrthoOrbital C 45   s \
	OrthoOrbital C 45   p \
	OrthoOrbital C 45   px \
	OrthoOrbital C 45   py \
	OrthoOrbital C 45   pz \
	OrthoOrbital N 1   s \
	OrthoOrbital N 1   p \
	OrthoOrbital N 1   px \
	OrthoOrbital N 1   py \
	OrthoOrbital N 1   pz \
	OrthoOrbital N 2   s \
	OrthoOrbital N 2   p \
	OrthoOrbital N 2   px \
	OrthoOrbital N 2   py \
	OrthoOrbital N 2   pz \
	OrthoOrbital N 3   s \
	OrthoOrbital N 3   p \
	OrthoOrbital N 3   px \
	OrthoOrbital N 3   py \
	OrthoOrbital N 3   pz \
	OrthoOrbital N 4   s \
	OrthoOrbital N 4   p \
	OrthoOrbital N 4   px \
	OrthoOrbital N 4   py \
	OrthoOrbital N 4   pz \
	OrthoOrbital Ti 1   s \
	OrthoOrbital Ti 1   p \
	OrthoOrbital Ti 1   px \
	OrthoOrbital Ti 1   py \
	OrthoOrbital Ti 1   pz \
	OrthoOrbital Ti 1   d \
	OrthoOrbital Ti 1   dxy \
	OrthoOrbital Ti 1   dyz \
	OrthoOrbital Ti 1   dz2 \
	OrthoOrbital Ti 1   dxz \
	OrthoOrbital Ti 1   dx2-y2 \
	OrthoOrbital O 1   s \
	OrthoOrbital O 1   p \
	OrthoOrbital O 1   px \
	OrthoOrbital O 1   py \
	OrthoOrbital O 1   pz
dump End ElecDensity KEdensity BandEigs EigStats RhoAtom DOS Kpoints
dump Ionic State IonicPositions Lattice EigStats Ecomponents
dump 
dump 
dump 
dump 
dump 
dump 
dump 
dump 
dump-name jdft.$VAR
elec-cutoff 20
elec-eigen-algo Davidson
elec-ex-corr gga-PBE
elec-initial-magnetization 0.000000 no
elec-n-bands 131
elec-smearing Fermi 0.001
electronic-minimize  \
	dirUpdateScheme      FletcherReeves \
	linminMethod         DirUpdateRecommended \
	nIterations          100 \
	history              15 \
	knormThreshold       0 \
	energyDiffThreshold  1e-07 \
	nEnergyDiff          2 \
	alphaTstart          1 \
	alphaTmin            1e-10 \
	updateTestStepSize   yes \
	alphaTreduceFactor   0.1 \
	alphaTincreaseFactor 3 \
	nAlphaAdjustMax      3 \
	wolfeEnergy          0.0001 \
	wolfeGradient        0.9 \
	fdTest               no
exchange-regularization WignerSeitzTruncated
fluid LinearPCM 298.000000 1.013250
fluid-anion F- 0.5 MeanFieldLJ \
	epsBulk 1 \
	pMol 0 \
	epsInf 1 \
	Pvap 0 \
	sigmaBulk 0 \
	Rvdw 2.24877 \
	Res 0 \
	tauNuc 343133
fluid-cation Na+ 0.5 MeanFieldLJ \
	epsBulk 1 \
	pMol 0 \
	epsInf 1 \
	Pvap 0 \
	sigmaBulk 0 \
	Rvdw 2.19208 \
	Res 0 \
	tauNuc 343133
fluid-ex-corr lda-TF lda-PZ
fluid-gummel-loop 10 1.000000e-05
fluid-minimize  \
	dirUpdateScheme      PolakRibiere \
	linminMethod         DirUpdateRecommended \
	nIterations          400 \
	history              15 \
	knormThreshold       1e-11 \
	energyDiffThreshold  0 \
	nEnergyDiff          2 \
	alphaTstart          1 \
	alphaTmin            1e-10 \
	updateTestStepSize   yes \
	alphaTreduceFactor   0.1 \
	alphaTincreaseFactor 3 \
	nAlphaAdjustMax      6 \
	wolfeEnergy          0.0001 \
	wolfeGradient        0.9 \
	fdTest               no
fluid-solvent H2O 55.338 ScalarEOS \
	epsBulk 78.4 \
	pMol 0.92466 \
	epsInf 1.77 \
	Pvap 1.06736e-10 \
	sigmaBulk 4.62e-05 \
	Rvdw 2.61727 \
	Res 1.42 \
	tauNuc 343133 \
	poleEl 15 7 1
forces-output-coords Positions
ion C  23.424986000000004   0.021063000000000   0.000049000000000 1
ion C  21.036470999999999   3.961892000000001  43.213290000000008 1
ion C  18.693038000000001   7.967490000000002  43.081883000000005 1
ion C  16.386144999999999  11.988491000000002  43.068005000000007 1
ion C  -9.376567000000000  15.986567000000003  43.189410000000009 1
ion C   4.678054000000001   0.122368000000000   0.052394000000000 1
ion C   2.280063000000000   4.131661000000000   0.182855000000000 1
ion C  -0.123928000000001   7.942418000000001   0.108846000000000 1
ion C  -2.432164000000000  11.956417000000004  43.188866000000004 1
ion C  -4.728618000000001  15.990997000000002  43.187217000000004 1
ion C   9.364107000000001   0.016203000000000   0.005808000000000 1
ion C   7.065728000000001   4.146105000000001   0.220603000000000 1
ion C  -0.034019000000001  15.885176000000003   0.030985000000000 1
ion C   2.336736999999998  19.847459000000001  43.253835000000009 1
ion C  11.746557000000001   3.956478000000001  43.225714000000011 1
ion C   9.467900000000000   7.951705000000001   0.152387000000000 1
ion C   4.665959000000001  15.741274000000002   0.188437000000000 1
ion C   6.987069000000002  19.849710000000002   0.000955000000000 1
ion C  16.391506000000000   3.935648000000000  43.136184000000007 1
ion C  14.083227000000004   7.964743000000001  43.078842000000009 1
ion C  11.766886000000000  11.966311000000001  43.198813000000008 1
ion C   9.362831000000002  15.886016000000001   0.053817000000000 1
ion C  -0.024909000000000   2.692406000000001   0.028479000000000 1
ion C  -2.429025000000000   6.617670000000001  43.187247000000006 1
ion C  -4.744360000000000  10.621106000000001  43.082180000000008 1
ion C  -7.051279000000001  14.649556000000002  43.137163000000008 1
ion C  -9.379940000000001  18.675635000000003  43.253613000000009 1
ion C   4.675505000000000   2.843784000000000   0.183629000000000 1
ion C  -0.125413000000000  10.635097000000004   0.111184000000000 1
ion C  -2.406516000000000  14.630103000000002  43.215176000000007 1
ion C  -4.729408000000000  18.680540000000004   0.000408000000000 1
ion C   9.372624000000002   2.706296000000000   0.050654000000000 1
ion C   2.272926000000000  14.449484000000000   0.188090000000000 1
ion C  -0.025468000000002  18.574537000000003   0.000588000000000 1
ion C  14.068620000000001   2.594869000000001  43.188144000000008 1
ion C  11.770647000000000   6.630162000000001  43.196671000000009 1
ion C   9.465944999999998  10.641020000000001   0.154799000000000 1
ion C   7.058187999999999  14.442632000000003   0.226048000000000 1
ion C   4.663590000000001  18.462600999999999   0.054259000000000 1
ion C  18.716221000000001   2.597588000000001  43.186371000000008 1
ion C  16.389056000000004   6.614865000000002  43.067376000000010 1
ion C  14.081617000000000  10.635481000000002  43.079379000000010 1
ion C  11.739115999999999  14.639818000000002  43.228307000000008 1
ion C   9.349610999999998  18.576045000000004   0.006953000000000 1
ion C   4.839515999999999   9.371354000000004   7.640142000000002 1
ion N   2.159812000000000  11.846146000000001   0.367413000000000 1
ion N   7.177949999999999  11.838317000000004   0.439987000000000 1
ion N   2.162998000000000   6.734627000000001   0.360435000000000 1
ion N   7.181811000000000   6.750317000000001   0.433407000000000 1
ion Ti   4.615947000000000   9.289327000000002   1.987164000000000 1
ion O   4.848291000000001   9.377097000000003   9.789512000000002 1
ion-species /projects/musgravc/apps/jdftx-1.6.0/build/pseudopotentials/GBRV_v1.5/$ID_pbe_v1.uspp
ion-species /projects/musgravc/apps/jdftx-1.6.0/build/pseudopotentials/GBRV_v1.5/$ID_pbe_v1.2.uspp
ion-species /projects/musgravc/apps/jdftx-1.6.0/build/pseudopotentials/GBRV_v1.5/$ID_pbe_v1.4.uspp
ion-species /projects/musgravc/apps/jdftx-1.6.0/build/pseudopotentials/GBRV_v1.5/$ID_pbe_v1.5.uspp
ion-width Ecut
ionic-minimize  \
	dirUpdateScheme      L-BFGS \
	linminMethod         DirUpdateRecommended \
	nIterations          0 \
	history              15 \
	knormThreshold       0.0001 \
	energyDiffThreshold  1e-06 \
	nEnergyDiff          2 \
	alphaTstart          1 \
	alphaTmin            1e-10 \
	updateTestStepSize   yes \
	alphaTreduceFactor   0.1 \
	alphaTincreaseFactor 3 \
	nAlphaAdjustMax      3 \
	wolfeEnergy          0.0001 \
	wolfeGradient        0.9 \
	fdTest               no
kpoint   0.000000000000   0.000000000000   0.000000000000  1.00000000000000
kpoint-folding 3 3 1 
latt-move-scale 0 0 0
latt-scale 1 1 1 
lattice  \
	  23.436261999999999  -11.733459000000000    0.000000000000000  \
	   0.017994000000000   19.941849000000001    0.000000000000000  \
	   0.000000000000000    0.000000000000000   43.256312999999999 
lattice-minimize  \
	dirUpdateScheme      L-BFGS \
	linminMethod         DirUpdateRecommended \
	nIterations          0 \
	history              15 \
	knormThreshold       0 \
	energyDiffThreshold  1e-06 \
	nEnergyDiff          2 \
	alphaTstart          1 \
	alphaTmin            1e-10 \
	updateTestStepSize   yes \
	alphaTreduceFactor   0.1 \
	alphaTincreaseFactor 3 \
	nAlphaAdjustMax      3 \
	wolfeEnergy          0.0001 \
	wolfeGradient        0.9 \
	fdTest               no
lcao-params 30 1e-06 0.001
pcm-variant CANDLE
spintype z-spin
subspace-rotation-factor 1 yes
symmetries none
symmetry-threshold 0.0001
target-mu -0.1602 no

van-der-waals D3


Applied RMS atom displacement 0 bohrs to make symmetries exact.

---------- Initializing the Grid ----------
R = 
[      23.4363     -11.7335            0  ]
[     0.017994      19.9418            0  ]
[            0            0      43.2563  ]
unit cell volume = 20225.5
G =
[   0.267976   0.157673         -0  ]
[ -0.000241801   0.314933          0  ]
[          0         -0   0.145255  ]
Minimum fftbox size, Smin = [  96  96  176  ]
Chosen fftbox size, S = [  96  96  180  ]

---------- Exchange Correlation functional ----------
Initalized PBE GGA exchange.
Initalized PBE GGA correlation.

---------- Setting up pseudopotentials ----------
Width of ionic core gaussian charges (only for fluid interactions / plotting) set to 0.397384

Reading pseudopotential file '/projects/musgravc/apps/jdftx-1.6.0/build/pseudopotentials/GBRV_v1.5/c_pbe_v1.2.uspp':
  Title: C.  Created by USPP 7.3.6 on 3-2-2014
  Reference state energy: -5.406344.  4 valence electrons in orbitals:
    |200>  occupation: 2  eigenvalue: -0.504890
    |210>  occupation: 2  eigenvalue: -0.194356
  lMax: 1  lLocal: 2  QijEcut: 5
  4 projectors sampled on a log grid with 503 points:
    l: 0  eig: -0.504890  rCut: 1.3
    l: 0  eig: 0.000000  rCut: 1.3
    l: 1  eig: -0.194357  rCut: 1.3
    l: 1  eig: 0.000000  rCut: 1.3
  Partial core density with radius 1.1
  Transforming core density to a uniform radial grid of dG=0.02 with 1464 points.
  Transforming local potential to a uniform radial grid of dG=0.02 with 1464 points.
  Transforming nonlocal projectors to a uniform radial grid of dG=0.02 with 432 points.
  Transforming density augmentations to a uniform radial grid of dG=0.02 with 1464 points.
  Transforming atomic orbitals to a uniform radial grid of dG=0.02 with 432 points.
  Core radius for overlap checks: 1.30 bohrs.

Reading pseudopotential file '/projects/musgravc/apps/jdftx-1.6.0/build/pseudopotentials/GBRV_v1.5/n_pbe_v1.2.uspp':
  Title: N.  Created by USPP 7.3.6 on 3-2-2014
  Reference state energy: -9.763716.  5 valence electrons in orbitals:
    |200>  occupation: 2  eigenvalue: -0.681964
    |210>  occupation: 3  eigenvalue: -0.260726
  lMax: 1  lLocal: 2  QijEcut: 6
  4 projectors sampled on a log grid with 491 points:
    l: 0  eig: -0.681964  rCut: 1.15
    l: 0  eig: 0.000000  rCut: 1.15
    l: 1  eig: -0.260729  rCut: 1.2
    l: 1  eig: 0.500000  rCut: 1.2
  Partial core density with radius 0.8
  Transforming core density to a uniform radial grid of dG=0.02 with 1464 points.
  Transforming local potential to a uniform radial grid of dG=0.02 with 1464 points.
  Transforming nonlocal projectors to a uniform radial grid of dG=0.02 with 432 points.
  Transforming density augmentations to a uniform radial grid of dG=0.02 with 1464 points.
  Transforming atomic orbitals to a uniform radial grid of dG=0.02 with 432 points.
  Core radius for overlap checks: 1.20 bohrs.

Reading pseudopotential file '/projects/musgravc/apps/jdftx-1.6.0/build/pseudopotentials/GBRV_v1.5/ti_pbe_v1.4.uspp':
  Title: Ti.  Created by USPP 7.3.6 on 31-3-15
  Reference state energy: -59.020943.  12 valence electrons in orbitals:
    |300>  occupation: 2  eigenvalue: -2.777623
    |310>  occupation: 6  eigenvalue: -1.894596
    |400>  occupation: 2  eigenvalue: -0.438610
    |320>  occupation: 1  eigenvalue: -0.583119
  lMax: 2  lLocal: 3  QijEcut: 6
  6 projectors sampled on a log grid with 597 points:
    l: 0  eig: -2.777624  rCut: 1.8
    l: 0  eig: -0.438611  rCut: 1.8
    l: 1  eig: -1.894596  rCut: 1.8
    l: 1  eig: 0.500000  rCut: 1.8
    l: 2  eig: -0.583118  rCut: 1.8
    l: 2  eig: 0.150000  rCut: 1.8
  Partial core density with radius 0.8
  Transforming core density to a uniform radial grid of dG=0.02 with 1464 points.
  Transforming local potential to a uniform radial grid of dG=0.02 with 1464 points.
  Transforming nonlocal projectors to a uniform radial grid of dG=0.02 with 432 points.
  Transforming density augmentations to a uniform radial grid of dG=0.02 with 1464 points.
  Transforming atomic orbitals to a uniform radial grid of dG=0.02 with 432 points.
  Core radius for overlap checks: 1.80 bohrs.

Reading pseudopotential file '/projects/musgravc/apps/jdftx-1.6.0/build/pseudopotentials/GBRV_v1.5/o_pbe_v1.2.uspp':
  Title: O.  Created by USPP 7.3.6 on 3-2-2014
  Reference state energy: -15.894388.  6 valence electrons in orbitals:
    |200>  occupation: 2  eigenvalue: -0.878823
    |210>  occupation: 4  eigenvalue: -0.332131
  lMax: 2  lLocal: 2  QijEcut: 6
  5 projectors sampled on a log grid with 511 points:
    l: 0  eig: -0.878823  rCut: 1.25
    l: 0  eig: 0.000000  rCut: 1.25
    l: 1  eig: -0.332132  rCut: 1.25
    l: 1  eig: 0.000000  rCut: 1.25
    l: 2  eig: 1.000000  rCut: 1.25
  Partial core density with radius 0.7
  Transforming core density to a uniform radial grid of dG=0.02 with 1464 points.
  Transforming local potential to a uniform radial grid of dG=0.02 with 1464 points.
  Transforming nonlocal projectors to a uniform radial grid of dG=0.02 with 432 points.
  Transforming density augmentations to a uniform radial grid of dG=0.02 with 1464 points.
  Transforming atomic orbitals to a uniform radial grid of dG=0.02 with 432 points.
  Core radius for overlap checks: 1.25 bohrs.

Initialized 4 species with 51 total atoms.

Folded 1 k-points by 3x3x1 to 9 k-points.

---------- Setting up k-points, bands, fillings ----------
No reducable k-points. 
Computing the number of bands and number of electrons
Calculating initial fillings.
nElectrons: 218.000000   nBands: 131   nStates: 18

----- Setting up reduced wavefunction bases (one per k-point) -----
average nbasis = 86412.556 , ideal nbasis = 86404.907

----- Initializing Supercell corresponding to k-point mesh -----
Lattice vector linear combinations in supercell:
[   3   0   0  ]
[   0   3   0  ]
[   0   0   1  ]
Supercell lattice vectors:
[  70.3088  -35.2004  0  ]
[  0.053982  59.8255  0  ]
[  0  0  43.2563  ]

Initializing DFT-D3 calculator:
	Parameters set for gga-PBE functional
	s6:  1.000  s_r6:  1.217
	s8:  0.722  s_r8:  1.000
	Per-atom parameters loaded for:
	 C:  sqrtQ[a0]:  3.105  Rcov[a0]:  1.417  CN: [ 0.00 0.99 2.00 3.00 3.98 ]
	 N:  sqrtQ[a0]:  2.712  Rcov[a0]:  1.342  CN: [ 0.00 0.99 2.01 2.99 ]
	Ti:  sqrtQ[a0]:  6.288  Rcov[a0]:  2.305  CN: [ 0.00 1.83 3.87 ]
	 O:  sqrtQ[a0]:  2.594  Rcov[a0]:  1.191  CN: [ 0.00 0.99 1.99 ]

Initializing DFT-D2 calculator for fluid / solvation:
	 C:  C6:   30.35 Eh-a0^6  R0: 2.744 a0
	 N:  C6:   21.33 Eh-a0^6  R0: 2.640 a0
	Ti:  C6:  187.33 Eh-a0^6  R0: 2.952 a0
	 O:  C6:   12.14 Eh-a0^6  R0: 2.536 a0

---------- Setting up ewald sum ----------
Optimum gaussian width for ewald sums = 5.644362 bohr.
Real space sum over 567 unit cells with max indices [  4  4  3  ]
Reciprocal space sum over 7803 terms with max indices [  8  8  13  ]

Computing DFT-D3 correction:
# coordination-number C 3.298 3.320 3.331 3.329 3.310 3.286 3.320 3.576 3.325 3.310 3.298 3.316 3.299 3.298 3.320 3.534 3.261 3.298 3.316 3.332 3.325 3.299 3.299 3.325 3.331 3.316 3.298 3.261 3.576 3.320 3.298 3.299 3.320 3.298 3.310 3.326 3.533 3.316 3.286 3.310 3.329 3.331 3.320 3.298 1.126
# coordination-number N 3.172 3.168 3.172 3.168
# coordination-number Ti 5.396
# coordination-number O 1.003
# diagonal-C6 C 24.30 24.08 23.96 23.99 24.18 24.41 24.08 20.58 24.03 24.18 24.30 24.12 24.29 24.30 24.08 21.15 24.62 24.31 24.12 23.96 24.02 24.29 24.29 24.03 23.96 24.12 24.30 24.62 20.58 24.08 24.30 24.29 24.08 24.30 24.18 24.02 21.15 24.12 24.41 24.19 23.99 23.96 24.08 24.31 42.53
# diagonal-C6 N 15.60 15.60 15.60 15.60
# diagonal-C6 Ti 321.59
# diagonal-C6 O 12.81
EvdW_6 =   -0.037591
EvdW_8 =   -0.030186

---------- Allocating electronic variables ----------
Initializing wave functions:  linear combination of atomic orbitals
C pseudo-atom occupations:   s ( 2 )  p ( 2 )
N pseudo-atom occupations:   s ( 2 )  p ( 3 )
Ti pseudo-atom occupations:   s ( 2 0 )  p ( 6 )  d ( 4 )
O pseudo-atom occupations:   s ( 2 )  p ( 4 )
	FillingsUpdate:  mu: -0.160200000  nElectrons: 218.000000  magneticMoment: [ Abs: 0.00440  Tot: +0.00001 ]
LCAOMinimize: Iter:   0  G: -331.7178766051749221  |grad|_K:  2.878e-03  alpha:  1.000e+00
	FillingsUpdate:  mu: -0.160200000  nElectrons: 218.000000  magneticMoment: [ Abs: 0.00433  Tot: +0.00000 ]
LCAOMinimize: Iter:   1  G: -332.0208671532643621  |grad|_K:  1.831e-03  alpha:  6.654e-02  linmin: -1.171e-01  cgtest:  1.294e+00  t[s]:    270.42
LCAOMinimize: Encountered beta<0, resetting CG.
LCAOMinimize: 	Predicted alpha/alphaT>3.000000, increasing alphaT to 1.996335e-01.
	FillingsUpdate:  mu: -0.160200000  nElectrons: 218.000000  magneticMoment: [ Abs: 0.00426  Tot: -0.00000 ]
LCAOMinimize: Iter:   2  G: -332.6399189730636294  |grad|_K:  1.450e-03  alpha:  3.440e-01  linmin: -1.011e-01  cgtest:  1.928e-01  t[s]:    404.68
	FillingsUpdate:  mu: -0.160200000  nElectrons: 218.000000  magneticMoment: [ Abs: 0.00426  Tot: -0.00000 ]
LCAOMinimize: Iter:   3  G: -332.6592364360664646  |grad|_K:  1.460e-03  alpha:  7.336e-03  linmin: -1.409e-01  cgtest:  9.698e-01  t[s]:    512.18
LCAOMinimize: 	Predicted alpha/alphaT>3.000000, increasing alphaT to 2.200810e-02.
LCAOMinimize: 	Predicted alpha/alphaT>3.000000, increasing alphaT to 6.602429e-02.
LCAOMinimize: 	Wrong curvature in test step, increasing alphaT to 1.980729e-01.
	FillingsUpdate:  mu: -0.160200000  nElectrons: 218.000000  magneticMoment: [ Abs: 0.00431  Tot: -0.00014 ]
LCAOMinimize: Iter:   4  G: -332.8031691657267856  |grad|_K:  1.440e-03  alpha: -1.628e-01  linmin: -1.439e-01  cgtest:  7.972e-01  t[s]:    671.76
	FillingsUpdate:  mu: -0.160200000  nElectrons: 218.000000  magneticMoment: [ Abs: 0.00448  Tot: -0.00029 ]
LCAOMinimize: Iter:   5  G: -332.8918326071470801  |grad|_K:  2.223e-03  alpha:  5.106e-02  linmin: -1.094e-02  cgtest:  3.487e-01  t[s]:    779.44
	FillingsUpdate:  mu: -0.160200000  nElectrons: 218.000000  magneticMoment: [ Abs: 0.00453  Tot: -0.00037 ]
LCAOMinimize: Iter:   6  G: -332.9763212527812470  |grad|_K:  2.270e-03  alpha:  1.386e-02  linmin: -3.036e-02  cgtest:  9.571e-01  t[s]:    892.85
	FillingsUpdate:  mu: -0.160200000  nElectrons: 218.000000  magneticMoment: [ Abs: 0.00436  Tot: -0.00024 ]
LCAOMinimize: Iter:   7  G: -333.0534381763379201  |grad|_K:  1.349e-03  alpha:  2.723e-02  linmin: -1.468e-01  cgtest:  4.489e-01  t[s]:    998.82
LCAOMinimize: 	Wrong curvature in test step, increasing alphaT to 8.169505e-02.
	FillingsUpdate:  mu: -0.160200000  nElectrons: 218.000000  magneticMoment: [ Abs: 0.00436  Tot: -0.00024 ]
LCAOMinimize: Iter:   8  G: -333.1000985325788406  |grad|_K:  1.284e-03  alpha: -2.832e-01  linmin: -2.142e-01  cgtest:  8.805e-01  t[s]:   1103.25
	FillingsUpdate:  mu: -0.160200000  nElectrons: 218.000000  magneticMoment: [ Abs: 0.00439  Tot: -0.00019 ]
LCAOMinimize: Iter:   9  G: -333.1599524364476679  |grad|_K:  1.168e-03  alpha:  3.936e-02  linmin: -1.925e-01  cgtest:  7.596e-01  t[s]:   1216.21
LCAOMinimize: 	Predicted alpha/alphaT>3.000000, increasing alphaT to 1.180819e-01.
	FillingsUpdate:  mu: -0.160200000  nElectrons: 218.000000  magneticMoment: [ Abs: 0.00441  Tot: -0.00015 ]
LCAOMinimize: Iter:  10  G: -333.1827013456339159  |grad|_K:  1.255e-03  alpha:  1.454e-02  linmin: -2.076e-01  cgtest:  7.347e-01  t[s]:   1349.21
LCAOMinimize: 	Wrong curvature in test step, increasing alphaT to 4.360778e-02.
	FillingsUpdate:  mu: -0.160200000  nElectrons: 218.000000  magneticMoment: [ Abs: 0.00442  Tot: -0.00008 ]
LCAOMinimize: Iter:  11  G: -333.2134151918061775  |grad|_K:  7.046e-04  alpha: -1.043e-01  linmin: -2.050e-01  cgtest:  6.832e-01  t[s]:   1453.71
LCAOMinimize: Encountered beta<0, resetting CG.
LCAOMinimize: 	Step increased G by 1.806670e-02, reducing alpha to 7.264839e-03.
	FillingsUpdate:  mu: -0.160200000  nElectrons: 218.000000  magneticMoment: [ Abs: 0.00443  Tot: -0.00006 ]
LCAOMinimize: Iter:  12  G: -333.2159548157044355  |grad|_K:  5.581e-04  alpha:  7.265e-03  linmin: -1.204e-01  cgtest:  9.687e-01  t[s]:   1641.90
LCAOMinimize: Encountered beta<0, resetting CG.
LCAOMinimize: 	Predicted alpha/alphaT>3.000000, increasing alphaT to 2.179452e-02.
	FillingsUpdate:  mu: -0.160200000  nElectrons: 218.000000  magneticMoment: [ Abs: 0.00445  Tot: +0.00001 ]
LCAOMinimize: Iter:  13  G: -333.2199108016831701  |grad|_K:  3.903e-04  alpha:  3.254e-02  linmin:  9.287e-03  cgtest:  1.296e-02  t[s]:   1776.49
LCAOMinimize: 	Predicted alpha/alphaT>3.000000, increasing alphaT to 9.761086e-02.
	FillingsUpdate:  mu: -0.160200000  nElectrons: 218.000000  magneticMoment: [ Abs: 0.00462  Tot: +0.00019 ]
LCAOMinimize: Iter:  14  G: -333.2284415206299286  |grad|_K:  8.971e-05  alpha:  1.459e-01  linmin: -4.565e-03  cgtest:  2.881e-01  t[s]:   1913.56
LCAOMinimize: Encountered beta<0, resetting CG.
	FillingsUpdate:  mu: -0.160200000  nElectrons: 218.000000  magneticMoment: [ Abs: 0.00487  Tot: +0.00043 ]
LCAOMinimize: Iter:  15  G: -333.2288392211719952  |grad|_K:  1.768e-04  alpha:  1.169e-01  linmin:  7.222e-03  cgtest: -1.411e-01  t[s]:   2020.11
	FillingsUpdate:  mu: -0.160200000  nElectrons: 218.000000  magneticMoment: [ Abs: 0.00588  Tot: +0.00142 ]
LCAOMinimize: Iter:  16  G: -333.2294392071584070  |grad|_K:  1.691e-04  alpha:  6.780e-02  linmin:  1.589e-03  cgtest:  8.320e-01  t[s]:   2133.25
	FillingsUpdate:  mu: -0.160200000  nElectrons: 218.000000  magneticMoment: [ Abs: 0.00632  Tot: +0.00186 ]
LCAOMinimize: Iter:  17  G: -333.2296583737901869  |grad|_K:  7.612e-05  alpha:  2.255e-02  linmin: -3.562e-02  cgtest:  3.465e-01  t[s]:   2242.53
LCAOMinimize: 	Predicted alpha/alphaT>3.000000, increasing alphaT to 6.763684e-02.
	FillingsUpdate:  mu: -0.160200000  nElectrons: 218.000000  magneticMoment: [ Abs: 0.00801  Tot: +0.00350 ]
LCAOMinimize: Iter:  18  G: -333.2298736494296918  |grad|_K:  5.615e-05  alpha:  1.008e-01  linmin:  2.020e-02  cgtest: -6.169e-02  t[s]:   2377.18
	FillingsUpdate:  mu: -0.160200000  nElectrons: 218.000000  magneticMoment: [ Abs: 0.00896  Tot: +0.00442 ]
LCAOMinimize: Iter:  19  G: -333.2298757778436311  |grad|_K:  3.765e-05  alpha:  2.186e-02  linmin: -2.862e-02  cgtest:  7.138e-01  t[s]:   2484.63
LCAOMinimize: Encountered beta<0, resetting CG.
LCAOMinimize: 	Wrong curvature in test step, increasing alphaT to 6.559308e-02.
	FillingsUpdate:  mu: -0.160200000  nElectrons: 218.000000  magneticMoment: [ Abs: 0.00984  Tot: +0.00526 ]
LCAOMinimize: Iter:  20  G: -333.2299021296210526  |grad|_K:  3.014e-05  alpha: -1.785e-01  linmin: -1.155e-01  cgtest:  9.455e-01  t[s]:   2588.41
LCAOMinimize: Encountered beta<0, resetting CG.
	FillingsUpdate:  mu: -0.160200000  nElectrons: 218.000000  magneticMoment: [ Abs: 0.02313  Tot: +0.01764 ]
LCAOMinimize: Iter:  21  G: -333.2300229255615136  |grad|_K:  5.281e-05  alpha:  2.802e-01  linmin:  1.320e-02  cgtest: -3.048e-01  t[s]:   2694.91
	FillingsUpdate:  mu: -0.160200000  nElectrons: 218.000000  magneticMoment: [ Abs: 0.03809  Tot: +0.03139 ]
LCAOMinimize: Iter:  22  G: -333.2300409923150255  |grad|_K:  5.257e-05  alpha:  4.293e-02  linmin: -1.058e-03  cgtest:  6.545e-01  t[s]:   2807.79
	FillingsUpdate:  mu: -0.160200000  nElectrons: 218.000000  magneticMoment: [ Abs: 0.07355  Tot: +0.06363 ]
LCAOMinimize: Iter:  23  G: -333.2301658965559454  |grad|_K:  4.477e-05  alpha:  9.009e-02  linmin: -2.946e-02  cgtest:  4.327e-01  t[s]:   2914.05
LCAOMinimize: 	Predicted alpha/alphaT>3.000000, increasing alphaT to 2.702582e-01.
LCAOMinimize: 	Step increased G by 1.006458e-03, reducing alpha to 5.479892e-02.
	FillingsUpdate:  mu: -0.160200000  nElectrons: 218.000000  magneticMoment: [ Abs: 0.11307  Tot: +0.09942 ]
LCAOMinimize: Iter:  24  G: -333.2302676899084872  |grad|_K:  6.613e-05  alpha:  5.480e-02  linmin: -7.428e-02  cgtest:  8.277e-01  t[s]:   3131.24
LCAOMinimize: 	Wrong curvature in test step, increasing alphaT to 1.643968e-01.
	FillingsUpdate:  mu: -0.160200000  nElectrons: 218.000000  magneticMoment: [ Abs: 0.19268  Tot: +0.17092 ]
LCAOMinimize: Iter:  25  G: -333.2306752220178510  |grad|_K:  1.014e-04  alpha: -9.232e-02  linmin: -1.500e-01  cgtest:  1.082e+00  t[s]:   3239.13
	FillingsUpdate:  mu: -0.160200000  nElectrons: 218.000000  magneticMoment: [ Abs: 0.43623  Tot: +0.38881 ]
LCAOMinimize: Iter:  26  G: -333.2324429784898143  |grad|_K:  1.950e-04  alpha:  1.543e-01  linmin: -1.815e-02  cgtest:  1.139e+00  t[s]:   3349.82
	FillingsUpdate:  mu: -0.160200000  nElectrons: 218.000000  magneticMoment: [ Abs: 0.51192  Tot: +0.44481 ]
LCAOMinimize: Iter:  27  G: -333.2336519332119451  |grad|_K:  1.481e-04  alpha:  9.934e-02  linmin: -2.958e-03  cgtest: -2.157e-01  t[s]:   3461.44
	FillingsUpdate:  mu: -0.160200000  nElectrons: 218.000000  magneticMoment: [ Abs: 0.58917  Tot: +0.52015 ]
LCAOMinimize: Iter:  28  G: -333.2340243115941121  |grad|_K:  1.059e-04  alpha:  4.594e-02  linmin:  4.957e-03  cgtest: -4.661e-01  t[s]:   3570.58
LCAOMinimize: 	Wrong curvature in test step, increasing alphaT to 1.378093e-01.
	FillingsUpdate:  mu: -0.160200000  nElectrons: 218.000000  magneticMoment: [ Abs: 0.63258  Tot: +0.55769 ]
LCAOMinimize: Iter:  29  G: -333.2345479476705350  |grad|_K:  9.285e-05  alpha: -6.674e-02  linmin: -3.431e-02  cgtest:  9.854e-01  t[s]:   3675.73
LCAOMinimize: Encountered beta<0, resetting CG.
	FillingsUpdate:  mu: -0.160200000  nElectrons: 218.000000  magneticMoment: [ Abs: 0.61808  Tot: +0.53784 ]
LCAOMinimize: Iter:  30  G: -333.2347646533918919  |grad|_K:  8.306e-05  alpha:  3.732e-02  linmin:  2.743e-02  cgtest: -4.869e-01  t[s]:   3783.38
LCAOMinimize: None of the convergence criteria satisfied after 30 iterations.
----- createFluidSolver() ----- (Fluid-side solver setup)
   Initializing fluid molecule 'H2O'
     Initializing site 'O'
       Electron density: proportional to exp(-r/0.36935)*erfc((r-0.51523)/0.36823) with norm 6.826
       Charge density: gaussian nuclear width 0.478731 with net site charge 0.826
       Polarizability: cuspless exponential with width 0.32 and norm 3.73
       Hard sphere radius: 2.57003 bohrs
       Positions in reference frame:
         [ +0.000000 +0.000000 +0.000000 ]
     Initializing site 'H'
       Electron density: proportional to exp(-r/0.34641)*erfc((r-0)/0.390882) with norm 0.587
       Charge density: gaussian nuclear width 0.377945 with net site charge -0.413
       Polarizability: cuspless exponential with width 0.39 and norm 3.3
       Positions in reference frame:
         [ +0.000000 -1.441945 +1.122523 ]
         [ +0.000000 +1.441945 +1.122523 ]
     Net charge: 0   dipole magnitude: 0.927204
     Initializing spherical shell mfKernel with radius 2.61727 Bohr
     deltaS corrections:
       site 'O': -7.54299
       site 'H': -6.83917
   Initializing fluid molecule 'Na+'
     Initializing site 'Na'
       Electron density: proportional to exp(-r/0.19682)*erfc((r-0.71491)/0.41314) with norm 8.1383
       Charge density: gaussian nuclear width 0.365347 with net site charge -1
       Hard sphere radius: 1.86327 bohrs
       Positions in reference frame:
         [ +0.000000 +0.000000 +0.000000 ]
     Net charge: -1   dipole magnitude: 0
     Initializing gaussian mfKernel with width: 1.55004 Bohr
     deltaS corrections:
       site 'Na': -22.3555
   Initializing fluid molecule 'F-'
     Initializing site 'F'
       Electron density: proportional to exp(-r/0.38886)*erfc((r-0)/0.438782) with norm 8
       Charge density: gaussian nuclear width 0.374796 with net site charge 1
       Hard sphere radius: 2.39995 bohrs
       Positions in reference frame:
         [ +0.000000 +0.000000 +0.000000 ]
     Net charge: 1   dipole magnitude: 0
     Initializing gaussian mfKernel with width: 1.59012 Bohr
     deltaS corrections:
       site 'F': -9.04335

Correction to mu due to finite nuclear width = -0.0106944
   Cavity determined by nc: 0.00142 and sigma: 0.707107
   Nonlocal vdW cavity from gaussian model electron density with norm = 8 and sigma = 0.993594 bohr
   Charge asymmetry in cavity with sensitivity pCavity = 36.5 e-bohr/Eh
   Electrostatic cavity expanded by eta = 1.46 bohrs
   Weighted density cavitation model constrained by Nbulk: 0.0049383 bohr^-3, Pvap: 3.14029 kPa, Rvdw: 2.61727 bohr and sigmaBulk: 4.62e-05 Eh/bohr^2 at T: 298 K.
   Weighted density dispersion model using vdW pair potentials with single solvent site with sqrtC6eff: 0.77 SI.


---- Citations for features of the code used in this run ----

   Software package:
      R. Sundararaman, K. Letchworth-Weaver, K.A. Schwarz, D. Gunceler, Y. Ozhabes and T.A. Arias, 'JDFTx: software for joint density-functional theory', SoftwareX 6, 278 (2017)

   gga-PBE exchange-correlation functional:
      J.P. Perdew, K. Burke and M. Ernzerhof, Phys. Rev. Lett. 77, 3865 (1996)

   Pseudopotentials:
      KF Garrity, JW Bennett, KM Rabe and D Vanderbilt, Comput. Mater. Sci. 81, 446 (2014)

   DFT-D3 dispersion correction:
      S. Grimme, J. Antony, S. Ehrlich and H. Krieg, J. Chem. Phys. 132, 154104 (2010)

   DFT-D2 dispersion correction:
      S. Grimme, J. Comput. Chem. 27, 1787 (2006)

   Charge-asymmetric nonlocally-determined local-electric (CANDLE) solvation model:
      R. Sundararaman and W.A. Goddard III, J. Chem. Phys. 142, 064107 (2015)

   Total energy minimization with Auxiliary Hamiltonian:
      C. Freysoldt, S. Boeck, and J. Neugebauer, Phys. Rev. B 79, 241103(R) (2009)

   Grand-canonical (fixed-potential) DFT:
      R. Sundararaman, W. A. Goddard III and T. A. Arias, J. Chem. Phys. 146, 114104 (2017)

   Linear-tetrahedron sampling for density of states:
      G. Lehmann and M. Taut, Phys. status solidi (b) 54, 469 (1972)

This list may not be complete. Please suggest additional citations or
report any other bugs at https://github.com/shankar1729/jdftx/issues

Initialization completed successfully at t[s]:   3797.23


Computing DFT-D3 correction:
# coordination-number C 3.298 3.320 3.331 3.329 3.310 3.286 3.320 3.576 3.325 3.310 3.298 3.316 3.299 3.298 3.320 3.534 3.261 3.298 3.316 3.332 3.325 3.299 3.299 3.325 3.331 3.316 3.298 3.261 3.576 3.320 3.298 3.299 3.320 3.298 3.310 3.326 3.533 3.316 3.286 3.310 3.329 3.331 3.320 3.298 1.126
# coordination-number N 3.172 3.168 3.172 3.168
# coordination-number Ti 5.396
# coordination-number O 1.003
# diagonal-C6 C 24.30 24.08 23.96 23.99 24.18 24.41 24.08 20.58 24.03 24.18 24.30 24.12 24.29 24.30 24.08 21.15 24.62 24.31 24.12 23.96 24.02 24.29 24.29 24.03 23.96 24.12 24.30 24.62 20.58 24.08 24.30 24.29 24.08 24.30 24.18 24.02 21.15 24.12 24.41 24.19 23.99 23.96 24.08 24.31 42.53
# diagonal-C6 N 15.60 15.60 15.60 15.60
# diagonal-C6 Ti 321.59
# diagonal-C6 O 12.81
EvdW_6 =   -0.037591
EvdW_8 =   -0.030186
Fluid solver invoked on fresh (random / LCAO) wavefunctions
Running a vacuum solve first:

-------- Initial electronic minimization -----------
	FillingsUpdate:  mu: -0.178953421  nElectrons: 218.000000  magneticMoment: [ Abs: 0.61808  Tot: +0.53784 ]
ElecMinimize: Iter:   0  G: -333.234953895187061  |grad|_K:  1.440e-04  alpha:  1.000e+00
	FillingsUpdate:  mu: -0.058772095  nElectrons: 218.000000  magneticMoment: [ Abs: 1.04594  Tot: +0.94539 ]
	SubspaceRotationAdjust: set factor to 1
ElecMinimize: Iter:   1  G: -336.113493006468559  |grad|_K:  4.029e-05  alpha:  6.899e-01  linmin:  2.206e-04  t[s]:   3968.66
	FillingsUpdate:  mu: -0.056848847  nElectrons: 218.000000  magneticMoment: [ Abs: 1.38313  Tot: +1.23144 ]
	SubspaceRotationAdjust: set factor to 0.662
ElecMinimize: Iter:   2  G: -336.320445419661439  |grad|_K:  4.275e-05  alpha:  6.230e-01  linmin:  3.981e-05  t[s]:   4076.18
	FillingsUpdate:  mu: -0.116906100  nElectrons: 218.000000  magneticMoment: [ Abs: 0.99853  Tot: +0.83217 ]
	SubspaceRotationAdjust: set factor to 0.314
ElecMinimize: Iter:   3  G: -336.335769201691562  |grad|_K:  4.774e-05  alpha:  1.409e-01  linmin:  2.756e-03  t[s]:   4180.40
ElecMinimize: 	Bad step direction: g.d > 0.
ElecMinimize: 	Undoing step.
ElecMinimize: 	Step failed: resetting search direction.
	FillingsUpdate:  mu: -0.116906100  nElectrons: 218.000000  magneticMoment: [ Abs: 0.99853  Tot: +0.83217 ]
	SubspaceRotationAdjust: set factor to 0.208
ElecMinimize: Iter:   4  G: -336.335769201692472  |grad|_K:  3.523e-05  alpha:  0.000e+00
	FillingsUpdate:  mu: -0.076845995  nElectrons: 218.000000  magneticMoment: [ Abs: 1.20253  Tot: +1.04269 ]
	SubspaceRotationAdjust: set factor to 0.263
ElecMinimize: Iter:   5  G: -336.367013782467495  |grad|_K:  1.444e-05  alpha:  1.292e-01  linmin: -6.395e-03  t[s]:   4362.84
ElecMinimize: 	Predicted alpha/alphaT>3.000000, increasing alphaT to 3.875440e-01.
	FillingsUpdate:  mu: -0.056359857  nElectrons: 218.000000  magneticMoment: [ Abs: 1.41163  Tot: +1.25259 ]
	SubspaceRotationAdjust: set factor to 0.199
ElecMinimize: Iter:   6  G: -336.389328162008383  |grad|_K:  1.269e-05  alpha:  4.555e-01  linmin:  5.586e-03  t[s]:   4497.89
	FillingsUpdate:  mu: -0.060404026  nElectrons: 218.000000  magneticMoment: [ Abs: 1.38126  Tot: +1.21584 ]
	SubspaceRotationAdjust: set factor to 0.233
ElecMinimize: Iter:   7  G: -336.398236942595759  |grad|_K:  1.014e-05  alpha:  3.690e-01  linmin: -6.213e-05  t[s]:   4605.53
	FillingsUpdate:  mu: -0.073564015  nElectrons: 218.000000  magneticMoment: [ Abs: 1.35050  Tot: +1.17389 ]
	SubspaceRotationAdjust: set factor to 0.218
ElecMinimize: Iter:   8  G: -336.407725022173508  |grad|_K:  6.533e-06  alpha:  4.436e-01  linmin: -4.568e-04  t[s]:   4710.13
	FillingsUpdate:  mu: -0.060902618  nElectrons: 218.000000  magneticMoment: [ Abs: 1.45388  Tot: +1.28178 ]
	SubspaceRotationAdjust: set factor to 0.233
ElecMinimize: Iter:   9  G: -336.411843047413015  |grad|_K:  4.156e-06  alpha:  4.526e-01  linmin:  3.724e-04  t[s]:   4815.20
	FillingsUpdate:  mu: -0.062539695  nElectrons: 218.000000  magneticMoment: [ Abs: 1.50365  Tot: +1.33361 ]
	SubspaceRotationAdjust: set factor to 0.242
ElecMinimize: Iter:  10  G: -336.413158752406048  |grad|_K:  2.988e-06  alpha:  3.898e-01  linmin:  2.879e-05  t[s]:   4919.94
	FillingsUpdate:  mu: -0.062905979  nElectrons: 218.000000  magneticMoment: [ Abs: 1.52760  Tot: +1.35771 ]
	SubspaceRotationAdjust: set factor to 0.276
ElecMinimize: Iter:  11  G: -336.414081677204592  |grad|_K:  2.432e-06  alpha:  5.036e-01  linmin: -1.768e-04  t[s]:   5025.30
	FillingsUpdate:  mu: -0.059497927  nElectrons: 218.000000  magneticMoment: [ Abs: 1.57019  Tot: +1.39937 ]
	SubspaceRotationAdjust: set factor to 0.28
ElecMinimize: Iter:  12  G: -336.414603652123731  |grad|_K:  2.107e-06  alpha:  4.195e-01  linmin:  1.632e-05  t[s]:   5132.89
	FillingsUpdate:  mu: -0.062726117  nElectrons: 218.000000  magneticMoment: [ Abs: 1.63435  Tot: +1.46057 ]
	SubspaceRotationAdjust: set factor to 0.319
ElecMinimize: Iter:  13  G: -336.415268885624812  |grad|_K:  1.890e-06  alpha:  7.478e-01  linmin:  9.608e-05  t[s]:   5237.91
	FillingsUpdate:  mu: -0.065617726  nElectrons: 218.000000  magneticMoment: [ Abs: 1.65945  Tot: +1.48329 ]
	SubspaceRotationAdjust: set factor to 0.327
ElecMinimize: Iter:  14  G: -336.415533609228532  |grad|_K:  1.570e-06  alpha:  3.593e-01  linmin: -1.277e-04  t[s]:   5342.57
	FillingsUpdate:  mu: -0.063825183  nElectrons: 218.000000  magneticMoment: [ Abs: 1.69030  Tot: +1.50937 ]
	SubspaceRotationAdjust: set factor to 0.358
ElecMinimize: Iter:  15  G: -336.415728573084607  |grad|_K:  1.099e-06  alpha:  3.778e-01  linmin: -3.779e-05  t[s]:   5447.93
	FillingsUpdate:  mu: -0.062045895  nElectrons: 218.000000  magneticMoment: [ Abs: 1.70852  Tot: +1.52283 ]
	SubspaceRotationAdjust: set factor to 0.322
ElecMinimize: Iter:  16  G: -336.415862071957406  |grad|_K:  1.203e-06  alpha:  5.369e-01  linmin: -7.352e-05  t[s]:   5553.31
	FillingsUpdate:  mu: -0.064341017  nElectrons: 218.000000  magneticMoment: [ Abs: 1.71343  Tot: +1.52559 ]
	SubspaceRotationAdjust: set factor to 0.31
ElecMinimize: Iter:  17  G: -336.415952875688504  |grad|_K:  6.944e-07  alpha:  2.971e-01  linmin: -6.161e-05  t[s]:   5657.41
	FillingsUpdate:  mu: -0.065063980  nElectrons: 218.000000  magneticMoment: [ Abs: 1.72007  Tot: +1.52930 ]
	SubspaceRotationAdjust: set factor to 0.308
ElecMinimize: Iter:  18  G: -336.416007586700118  |grad|_K:  7.083e-07  alpha:  5.544e-01  linmin:  6.268e-05  t[s]:   5760.10
	FillingsUpdate:  mu: -0.063716066  nElectrons: 218.000000  magneticMoment: [ Abs: 1.72723  Tot: +1.53326 ]
	SubspaceRotationAdjust: set factor to 0.299
ElecMinimize: Iter:  19  G: -336.416039371019792  |grad|_K:  4.866e-07  alpha:  3.149e-01  linmin:  2.328e-07  t[s]:   5862.53
	FillingsUpdate:  mu: -0.063476809  nElectrons: 218.000000  magneticMoment: [ Abs: 1.72964  Tot: +1.53377 ]
	SubspaceRotationAdjust: set factor to 0.371
ElecMinimize: Iter:  20  G: -336.416062458251645  |grad|_K:  4.191e-07  alpha:  4.781e-01  linmin:  1.443e-06  t[s]:   5964.85
	FillingsUpdate:  mu: -0.064459154  nElectrons: 218.000000  magneticMoment: [ Abs: 1.72850  Tot: +1.53215 ]
	SubspaceRotationAdjust: set factor to 0.334
ElecMinimize: Iter:  21  G: -336.416075441159364  |grad|_K:  3.669e-07  alpha:  3.618e-01  linmin:  4.408e-06  t[s]:   6069.42
	FillingsUpdate:  mu: -0.064388793  nElectrons: 218.000000  magneticMoment: [ Abs: 1.72921  Tot: +1.53149 ]
	SubspaceRotationAdjust: set factor to 0.426
ElecMinimize: Iter:  22  G: -336.416088067288229  |grad|_K:  2.639e-07  alpha:  4.609e-01  linmin:  3.713e-06  t[s]:   6174.45
	FillingsUpdate:  mu: -0.063893024  nElectrons: 218.000000  magneticMoment: [ Abs: 1.73039  Tot: +1.53174 ]
	SubspaceRotationAdjust: set factor to 0.387
ElecMinimize: Iter:  23  G: -336.416093458989735  |grad|_K:  2.259e-07  alpha:  3.801e-01  linmin:  1.769e-06  t[s]:   6276.81
	FillingsUpdate:  mu: -0.064190280  nElectrons: 218.000000  magneticMoment: [ Abs: 1.72953  Tot: +1.53082 ]
	SubspaceRotationAdjust: set factor to 0.358
ElecMinimize: Iter:  24  G: -336.416096659335608  |grad|_K:  1.580e-07  alpha:  3.075e-01  linmin:  1.967e-06  t[s]:   6379.22
	FillingsUpdate:  mu: -0.064154490  nElectrons: 218.000000  magneticMoment: [ Abs: 1.72864  Tot: +1.52996 ]
	SubspaceRotationAdjust: set factor to 0.404
ElecMinimize: Iter:  25  G: -336.416099173651560  |grad|_K:  1.231e-07  alpha:  4.943e-01  linmin:  2.263e-06  t[s]:   6481.50
	FillingsUpdate:  mu: -0.063951459  nElectrons: 218.000000  magneticMoment: [ Abs: 1.72826  Tot: +1.52960 ]
	SubspaceRotationAdjust: set factor to 0.387
ElecMinimize: Iter:  26  G: -336.416100515702738  |grad|_K:  1.216e-07  alpha:  4.350e-01  linmin: -1.853e-07  t[s]:   6584.55
	FillingsUpdate:  mu: -0.064173114  nElectrons: 218.000000  magneticMoment: [ Abs: 1.72724  Tot: +1.52886 ]
	SubspaceRotationAdjust: set factor to 0.376
ElecMinimize: Iter:  27  G: -336.416101463444704  |grad|_K:  7.391e-08  alpha:  3.141e-01  linmin:  8.786e-07  t[s]:   6689.53
	FillingsUpdate:  mu: -0.064178343  nElectrons: 218.000000  magneticMoment: [ Abs: 1.72686  Tot: +1.52869 ]
	SubspaceRotationAdjust: set factor to 0.428
ElecMinimize: Iter:  28  G: -336.416102091224275  |grad|_K:  6.568e-08  alpha:  5.645e-01  linmin:  2.376e-06  t[s]:   6792.13
	FillingsUpdate:  mu: -0.064036587  nElectrons: 218.000000  magneticMoment: [ Abs: 1.72677  Tot: +1.52874 ]
	SubspaceRotationAdjust: set factor to 0.4
ElecMinimize: Iter:  29  G: -336.416102422833433  |grad|_K:  5.762e-08  alpha:  3.780e-01  linmin:  4.069e-07  t[s]:   6894.54
	FillingsUpdate:  mu: -0.064117200  nElectrons: 218.000000  magneticMoment: [ Abs: 1.72618  Tot: +1.52845 ]
	SubspaceRotationAdjust: set factor to 0.385
ElecMinimize: Iter:  30  G: -336.416102660421359  |grad|_K:  4.314e-08  alpha:  3.510e-01  linmin:  4.663e-08  t[s]:   6997.02
	FillingsUpdate:  mu: -0.064126043  nElectrons: 218.000000  magneticMoment: [ Abs: 1.72585  Tot: +1.52836 ]
	SubspaceRotationAdjust: set factor to 0.466
ElecMinimize: Iter:  31  G: -336.416102867075608  |grad|_K:  3.311e-08  alpha:  5.442e-01  linmin: -2.169e-07  t[s]:   7102.09
	FillingsUpdate:  mu: -0.064070807  nElectrons: 218.000000  magneticMoment: [ Abs: 1.72595  Tot: +1.52850 ]
	SubspaceRotationAdjust: set factor to 0.441
ElecMinimize: Iter:  32  G: -336.416102958870056  |grad|_K:  2.972e-08  alpha:  4.102e-01  linmin: -3.668e-07  t[s]:   7207.31
	FillingsUpdate:  mu: -0.064119363  nElectrons: 218.000000  magneticMoment: [ Abs: 1.72586  Tot: +1.52849 ]
	SubspaceRotationAdjust: set factor to 0.388
ElecMinimize: Iter:  33  G: -336.416103015960800  |grad|_K:  2.357e-08  alpha:  3.168e-01  linmin: -2.524e-07  t[s]:   7312.47
ElecMinimize: Converged (|Delta G|<1.000000e-07 for 2 iters).
Setting wave functions to eigenvectors of Hamiltonian
Converging empty states (this may take a while): |deigs|: 6.549e-03
Vacuum energy after initial minimize, F = -336.416103015960800

Shifting auxilliary hamiltonian by -0.096081 to set nElectrons=218.000000

-------- Electronic minimization -----------
	Linear fluid (dielectric constant: 78.4, screening length: 8.12261 Bohr) occupying 0.717498 of unit cell:	Completed after 23 iterations at t[s]:   7839.91
	FillingsUpdate:  mu: -0.160200000  nElectrons: 218.000000  magneticMoment: [ Abs: 1.72626  Tot: +1.52879 ]
ElecMinimize: Iter:   0  G: -336.409991676138191  |grad|_K:  1.907e-05  alpha:  1.000e+00
	Linear fluid (dielectric constant: 78.4, screening length: 8.12261 Bohr) occupying 0.718985 of unit cell:	Completed after 23 iterations at t[s]:   7945.36
	Linear fluid (dielectric constant: 78.4, screening length: 8.12261 Bohr) occupying 0.718192 of unit cell:	Completed after 21 iterations at t[s]:   7991.00
ElecMinimize: 	Step increased G by 1.424934e-03, reducing alpha to 2.325138e-02.
	Linear fluid (dielectric constant: 78.4, screening length: 8.12261 Bohr) occupying 0.717575 of unit cell:	Completed after 20 iterations at t[s]:   8078.14
	FillingsUpdate:  mu: -0.160200000  nElectrons: 217.921876  magneticMoment: [ Abs: 1.66104  Tot: +1.45741 ]
	SubspaceRotationAdjust: set factor to 0.196
ElecMinimize: Iter:   1  G: -336.413217983078937  |grad|_K:  1.615e-05  alpha:  2.325e-02  linmin: -6.135e-02  t[s]:   8123.66
	Linear fluid (dielectric constant: 78.4, screening length: 8.12261 Bohr) occupying 0.717717 of unit cell:	Completed after 16 iterations at t[s]:   8171.75
ElecMinimize: 	Predicted alpha/alphaT>3.000000, increasing alphaT to 6.975414e-02.
	Linear fluid (dielectric constant: 78.4, screening length: 8.12261 Bohr) occupying 0.717979 of unit cell:	Completed after 17 iterations at t[s]:   8214.71
	Linear fluid (dielectric constant: 78.4, screening length: 8.12261 Bohr) occupying 0.717970 of unit cell:	Completed after 8 iterations at t[s]:   8252.23
	FillingsUpdate:  mu: -0.160200000  nElectrons: 217.581541  magneticMoment: [ Abs: 1.38016  Tot: +1.13229 ]
	SubspaceRotationAdjust: set factor to 0.135
ElecMinimize: Iter:   2  G: -336.419940246351530  |grad|_K:  1.059e-05  alpha:  6.795e-02  linmin: -1.742e-04  t[s]:   8297.32
	Linear fluid (dielectric constant: 78.4, screening length: 8.12261 Bohr) occupying 0.718197 of unit cell:	Completed after 15 iterations at t[s]:   8345.05
ElecMinimize: 	Predicted alpha/alphaT>3.000000, increasing alphaT to 2.038372e-01.
	Linear fluid (dielectric constant: 78.4, screening length: 8.12261 Bohr) occupying 0.718544 of unit cell:	Completed after 15 iterations at t[s]:   8386.82
	Linear fluid (dielectric constant: 78.4, screening length: 8.12261 Bohr) occupying 0.718761 of unit cell:	Completed after 13 iterations at t[s]:   8427.34
	FillingsUpdate:  mu: -0.160200000  nElectrons: 217.274532  magneticMoment: [ Abs: 1.18068  Tot: +0.83150 ]
	SubspaceRotationAdjust: set factor to 0.0823
ElecMinimize: Iter:   3  G: -336.427359356374836  |grad|_K:  1.028e-05  alpha:  3.124e-01  linmin: -6.780e-04  t[s]:   8473.46
	Linear fluid (dielectric constant: 78.4, screening length: 8.12261 Bohr) occupying 0.719572 of unit cell:	Completed after 18 iterations at t[s]:   8522.95
	Linear fluid (dielectric constant: 78.4, screening length: 8.12261 Bohr) occupying 0.719321 of unit cell:	Completed after 13 iterations at t[s]:   8563.40
	FillingsUpdate:  mu: -0.160200000  nElectrons: 217.264440  magneticMoment: [ Abs: 1.21552  Tot: +0.83761 ]
	SubspaceRotationAdjust: set factor to 0.0692
ElecMinimize: Iter:   4  G: -336.431987173907885  |grad|_K:  5.332e-06  alpha:  2.124e-01  linmin:  1.798e-06  t[s]:   8608.07
	Linear fluid (dielectric constant: 78.4, screening length: 8.12261 Bohr) occupying 0.719626 of unit cell:	Completed after 9 iterations at t[s]:   8651.87
	Linear fluid (dielectric constant: 78.4, screening length: 8.12261 Bohr) occupying 0.720057 of unit cell:	Completed after 9 iterations at t[s]:   8689.97
	FillingsUpdate:  mu: -0.160200000  nElectrons: 217.199559  magneticMoment: [ Abs: 1.20890  Tot: +0.85388 ]
	SubspaceRotationAdjust: set factor to 0.0881
ElecMinimize: Iter:   5  G: -336.435010454123130  |grad|_K:  2.645e-06  alpha:  5.134e-01  linmin: -3.722e-04  t[s]:   8734.87
	Linear fluid (dielectric constant: 78.4, screening length: 8.12261 Bohr) occupying 0.720442 of unit cell:	Completed after 13 iterations at t[s]:   8781.32
	Linear fluid (dielectric constant: 78.4, screening length: 8.12261 Bohr) occupying 0.720624 of unit cell:	Completed after 12 iterations at t[s]:   8821.45
	FillingsUpdate:  mu: -0.160200000  nElectrons: 217.092014  magneticMoment: [ Abs: 1.16314  Tot: +0.84673 ]
	SubspaceRotationAdjust: set factor to 0.0754
ElecMinimize: Iter:   6  G: -336.436094456502360  |grad|_K:  2.564e-06  alpha:  7.593e-01  linmin:  8.093e-04  t[s]:   8866.73
	Linear fluid (dielectric constant: 78.4, screening length: 8.12261 Bohr) occupying 0.721293 of unit cell:	Completed after 13 iterations at t[s]:   8913.65
	Linear fluid (dielectric constant: 78.4, screening length: 8.12261 Bohr) occupying 0.720932 of unit cell:	Completed after 11 iterations at t[s]:   8953.44
	FillingsUpdate:  mu: -0.160200000  nElectrons: 217.075907  magneticMoment: [ Abs: 1.17988  Tot: +0.88535 ]
	SubspaceRotationAdjust: set factor to 0.0794
ElecMinimize: Iter:   7  G: -336.436525978316240  |grad|_K:  1.670e-06  alpha:  3.462e-01  linmin:  2.191e-05  t[s]:   8998.07
	Linear fluid (dielectric constant: 78.4, screening length: 8.12261 Bohr) occupying 0.721079 of unit cell:	Completed after 7 iterations at t[s]:   9040.45
	Linear fluid (dielectric constant: 78.4, screening length: 8.12261 Bohr) occupying 0.721216 of unit cell:	Completed after 8 iterations at t[s]:   9077.82
	FillingsUpdate:  mu: -0.160200000  nElectrons: 217.045922  magneticMoment: [ Abs: 1.18957  Tot: +0.91169 ]
	SubspaceRotationAdjust: set factor to 0.0973
ElecMinimize: Iter:   8  G: -336.436907577259774  |grad|_K:  1.216e-06  alpha:  6.721e-01  linmin: -9.157e-06  t[s]:   9122.70
	Linear fluid (dielectric constant: 78.4, screening length: 8.12261 Bohr) occupying 0.721326 of unit cell:	Completed after 13 iterations at t[s]:   9168.73
	Linear fluid (dielectric constant: 78.4, screening length: 8.12261 Bohr) occupying 0.721297 of unit cell:	Completed after 9 iterations at t[s]:   9206.58
	FillingsUpdate:  mu: -0.160200000  nElectrons: 217.012865  magneticMoment: [ Abs: 1.17881  Tot: +0.90584 ]
	SubspaceRotationAdjust: set factor to 0.092
ElecMinimize: Iter:   9  G: -336.437054776909065  |grad|_K:  1.128e-06  alpha:  4.906e-01  linmin: -1.711e-05  t[s]:   9251.38
	Linear fluid (dielectric constant: 78.4, screening length: 8.12261 Bohr) occupying 0.721343 of unit cell:	Completed after 8 iterations at t[s]:   9294.58
	Linear fluid (dielectric constant: 78.4, screening length: 8.12261 Bohr) occupying 0.721346 of unit cell:	Completed after 2 iterations at t[s]:   9328.16
	FillingsUpdate:  mu: -0.160200000  nElectrons: 216.998591  magneticMoment: [ Abs: 1.18325  Tot: +0.91508 ]
	SubspaceRotationAdjust: set factor to 0.101
ElecMinimize: Iter:  10  G: -336.437190254852055  |grad|_K:  9.040e-07  alpha:  5.212e-01  linmin:  2.697e-05  t[s]:   9372.91
	Linear fluid (dielectric constant: 78.4, screening length: 8.12261 Bohr) occupying 0.721359 of unit cell:	Completed after 8 iterations at t[s]:   9416.41
	Linear fluid (dielectric constant: 78.4, screening length: 8.12261 Bohr) occupying 0.721362 of unit cell:	Completed after 3 iterations at t[s]:   9450.65
	FillingsUpdate:  mu: -0.160200000  nElectrons: 216.980538  magneticMoment: [ Abs: 1.17909  Tot: +0.91504 ]
	SubspaceRotationAdjust: set factor to 0.119
ElecMinimize: Iter:  11  G: -336.437299343430027  |grad|_K:  7.737e-07  alpha:  6.553e-01  linmin: -6.103e-05  t[s]:   9495.45
	Linear fluid (dielectric constant: 78.4, screening length: 8.12261 Bohr) occupying 0.721370 of unit cell:	Completed after 8 iterations at t[s]:   9538.42
	Linear fluid (dielectric constant: 78.4, screening length: 8.12261 Bohr) occupying 0.721370 of unit cell:	Completed after 2 iterations at t[s]:   9572.08
	FillingsUpdate:  mu: -0.160200000  nElectrons: 216.969654  magneticMoment: [ Abs: 1.17514  Tot: +0.91584 ]
	SubspaceRotationAdjust: set factor to 0.138
ElecMinimize: Iter:  12  G: -336.437390456696562  |grad|_K:  7.128e-07  alpha:  7.349e-01  linmin: -5.579e-05  t[s]:   9617.08
	Linear fluid (dielectric constant: 78.4, screening length: 8.12261 Bohr) occupying 0.721384 of unit cell:	Completed after 9 iterations at t[s]:   9660.78
	Linear fluid (dielectric constant: 78.4, screening length: 8.12261 Bohr) occupying 0.721378 of unit cell:	Completed after 7 iterations at t[s]:   9697.46
	FillingsUpdate:  mu: -0.160200000  nElectrons: 216.974330  magneticMoment: [ Abs: 1.17968  Tot: +0.92352 ]
	SubspaceRotationAdjust: set factor to 0.102
ElecMinimize: Iter:  13  G: -336.437429436120738  |grad|_K:  6.858e-07  alpha:  3.669e-01  linmin: -1.862e-05  t[s]:   9741.94
	Linear fluid (dielectric constant: 78.4, screening length: 8.12261 Bohr) occupying 0.721387 of unit cell:	Completed after 9 iterations at t[s]:   9785.64
	Linear fluid (dielectric constant: 78.4, screening length: 8.12261 Bohr) occupying 0.721389 of unit cell:	Completed after 3 iterations at t[s]:   9819.96
	FillingsUpdate:  mu: -0.160200000  nElectrons: 216.962570  magneticMoment: [ Abs: 1.16680  Tot: +0.91500 ]
	SubspaceRotationAdjust: set factor to 0.0897
ElecMinimize: Iter:  14  G: -336.437475490501470  |grad|_K:  4.795e-07  alpha:  4.771e-01  linmin: -4.509e-05  t[s]:   9864.42
	Linear fluid (dielectric constant: 78.4, screening length: 8.12261 Bohr) occupying 0.721400 of unit cell:	Completed after 2 iterations at t[s]:   9903.89
	Linear fluid (dielectric constant: 78.4, screening length: 8.12261 Bohr) occupying 0.721403 of unit cell:	Completed after 2 iterations at t[s]:   9937.51
	FillingsUpdate:  mu: -0.160200000  nElectrons: 216.962975  magneticMoment: [ Abs: 1.16284  Tot: +0.91513 ]
	SubspaceRotationAdjust: set factor to 0.116
ElecMinimize: Iter:  15  G: -336.437504187775289  |grad|_K:  3.774e-07  alpha:  6.054e-01  linmin: -1.297e-05  t[s]:   9982.23
	Linear fluid (dielectric constant: 78.4, screening length: 8.12261 Bohr) occupying 0.721417 of unit cell:	Completed after 7 iterations at t[s]:  10024.75
	Linear fluid (dielectric constant: 78.4, screening length: 8.12261 Bohr) occupying 0.721417 of unit cell:	Completed after 0 iterations at t[s]:  10056.45
	FillingsUpdate:  mu: -0.160200000  nElectrons: 216.969807  magneticMoment: [ Abs: 1.16401  Tot: +0.91987 ]
	SubspaceRotationAdjust: set factor to 0.0821
ElecMinimize: Iter:  16  G: -336.437521433568349  |grad|_K:  3.622e-07  alpha:  5.919e-01  linmin:  1.315e-04  t[s]:  10101.19
	Linear fluid (dielectric constant: 78.4, screening length: 8.12261 Bohr) occupying 0.721427 of unit cell:	Completed after 7 iterations at t[s]:  10143.61
	Linear fluid (dielectric constant: 78.4, screening length: 8.12261 Bohr) occupying 0.721423 of unit cell:	Completed after 4 iterations at t[s]:  10178.61
	FillingsUpdate:  mu: -0.160200000  nElectrons: 216.967572  magneticMoment: [ Abs: 1.15807  Tot: +0.91599 ]
	SubspaceRotationAdjust: set factor to 0.0672
ElecMinimize: Iter:  17  G: -336.437530047726909  |grad|_K:  2.731e-07  alpha:  3.315e-01  linmin:  5.470e-06  t[s]:  10223.25
	Linear fluid (dielectric constant: 78.4, screening length: 8.12261 Bohr) occupying 0.721425 of unit cell:	Completed after 2 iterations at t[s]:  10262.42
	Linear fluid (dielectric constant: 78.4, screening length: 8.12261 Bohr) occupying 0.721428 of unit cell:	Completed after 2 iterations at t[s]:  10296.08
	FillingsUpdate:  mu: -0.160200000  nElectrons: 216.969936  magneticMoment: [ Abs: 1.15413  Tot: +0.91506 ]
	SubspaceRotationAdjust: set factor to 0.0921
ElecMinimize: Iter:  18  G: -336.437539763462780  |grad|_K:  1.892e-07  alpha:  6.418e-01  linmin:  3.133e-05  t[s]:  10341.08
	Linear fluid (dielectric constant: 78.4, screening length: 8.12261 Bohr) occupying 0.721428 of unit cell:	Completed after 3 iterations at t[s]:  10381.10
	Linear fluid (dielectric constant: 78.4, screening length: 8.12261 Bohr) occupying 0.721428 of unit cell:	Completed after 3 iterations at t[s]:  10415.53
	FillingsUpdate:  mu: -0.160200000  nElectrons: 216.974952  magneticMoment: [ Abs: 1.15378  Tot: +0.91699 ]
	SubspaceRotationAdjust: set factor to 0.0887
ElecMinimize: Iter:  19  G: -336.437545200358443  |grad|_K:  1.813e-07  alpha:  7.641e-01  linmin:  1.782e-04  t[s]:  10460.04
	Linear fluid (dielectric constant: 78.4, screening length: 8.12261 Bohr) occupying 0.721422 of unit cell:	Completed after 3 iterations at t[s]:  10499.97
	Linear fluid (dielectric constant: 78.4, screening length: 8.12261 Bohr) occupying 0.721425 of unit cell:	Completed after 3 iterations at t[s]:  10534.27
	FillingsUpdate:  mu: -0.160200000  nElectrons: 216.975232  magneticMoment: [ Abs: 1.15109  Tot: +0.91546 ]
	SubspaceRotationAdjust: set factor to 0.0781
ElecMinimize: Iter:  20  G: -336.437547797032437  |grad|_K:  1.567e-07  alpha:  4.115e-01  linmin:  5.830e-05  t[s]:  10579.10
	Linear fluid (dielectric constant: 78.4, screening length: 8.12261 Bohr) occupying 0.721420 of unit cell:	Completed after 2 iterations at t[s]:  10618.47
	Linear fluid (dielectric constant: 78.4, screening length: 8.12261 Bohr) occupying 0.721418 of unit cell:	Completed after 2 iterations at t[s]:  10652.08
	FillingsUpdate:  mu: -0.160200000  nElectrons: 216.978435  magneticMoment: [ Abs: 1.15055  Tot: +0.91630 ]
	SubspaceRotationAdjust: set factor to 0.0826
ElecMinimize: Iter:  21  G: -336.437550516895499  |grad|_K:  1.229e-07  alpha:  5.494e-01  linmin: -6.279e-05  t[s]:  10696.88
	Linear fluid (dielectric constant: 78.4, screening length: 8.12261 Bohr) occupying 0.721411 of unit cell:	Completed after 2 iterations at t[s]:  10736.31
	Linear fluid (dielectric constant: 78.4, screening length: 8.12261 Bohr) occupying 0.721410 of unit cell:	Completed after 0 iterations at t[s]:  10768.61
	FillingsUpdate:  mu: -0.160200000  nElectrons: 216.980128  magneticMoment: [ Abs: 1.14921  Tot: +0.91601 ]
	SubspaceRotationAdjust: set factor to 0.101
ElecMinimize: Iter:  22  G: -336.437552661903226  |grad|_K:  1.038e-07  alpha:  6.863e-01  linmin: -2.839e-04  t[s]:  10813.25
	Linear fluid (dielectric constant: 78.4, screening length: 8.12261 Bohr) occupying 0.721402 of unit cell:	Completed after 3 iterations at t[s]:  10853.27
	Linear fluid (dielectric constant: 78.4, screening length: 8.12261 Bohr) occupying 0.721403 of unit cell:	Completed after 0 iterations at t[s]:  10885.13
	FillingsUpdate:  mu: -0.160200000  nElectrons: 216.980323  magneticMoment: [ Abs: 1.14760  Tot: +0.91503 ]
	SubspaceRotationAdjust: set factor to 0.0824
ElecMinimize: Iter:  23  G: -336.437553995535836  |grad|_K:  1.276e-07  alpha:  5.809e-01  linmin:  4.765e-04  t[s]:  10930.00
	Linear fluid (dielectric constant: 78.4, screening length: 8.12261 Bohr) occupying 0.721393 of unit cell:	Completed after 4 iterations at t[s]:  10970.50
	Linear fluid (dielectric constant: 78.4, screening length: 8.12261 Bohr) occupying 0.721398 of unit cell:	Completed after 3 iterations at t[s]:  11004.60
	FillingsUpdate:  mu: -0.160200000  nElectrons: 216.982584  magneticMoment: [ Abs: 1.14816  Tot: +0.91622 ]
	SubspaceRotationAdjust: set factor to 0.0687
ElecMinimize: Iter:  24  G: -336.437554904284070  |grad|_K:  9.094e-08  alpha:  3.222e-01  linmin: -5.009e-05  t[s]:  11049.71
	Linear fluid (dielectric constant: 78.4, screening length: 8.12261 Bohr) occupying 0.721395 of unit cell:	Completed after 0 iterations at t[s]:  11087.09
	Linear fluid (dielectric constant: 78.4, screening length: 8.12261 Bohr) occupying 0.721392 of unit cell:	Completed after 1 iterations at t[s]:  11120.11
	FillingsUpdate:  mu: -0.160200000  nElectrons: 216.983583  magneticMoment: [ Abs: 1.14768  Tot: +0.91640 ]
	SubspaceRotationAdjust: set factor to 0.088
ElecMinimize: Iter:  25  G: -336.437555982057290  |grad|_K:  8.804e-08  alpha:  7.107e-01  linmin:  6.348e-04  t[s]:  11165.06
	Linear fluid (dielectric constant: 78.4, screening length: 8.12261 Bohr) occupying 0.721389 of unit cell:	Completed after 3 iterations at t[s]:  11205.00
	Linear fluid (dielectric constant: 78.4, screening length: 8.12261 Bohr) occupying 0.721390 of unit cell:	Completed after 0 iterations at t[s]:  11236.77
	FillingsUpdate:  mu: -0.160200000  nElectrons: 216.982868  magneticMoment: [ Abs: 1.14633  Tot: +0.91544 ]
	SubspaceRotationAdjust: set factor to 0.0745
ElecMinimize: Iter:  26  G: -336.437556778350597  |grad|_K:  1.019e-07  alpha:  5.344e-01  linmin:  8.024e-04  t[s]:  11281.72
	Linear fluid (dielectric constant: 78.4, screening length: 8.12261 Bohr) occupying 0.721388 of unit cell:	Completed after 3 iterations at t[s]:  11321.91
	Linear fluid (dielectric constant: 78.4, screening length: 8.12261 Bohr) occupying 0.721389 of unit cell:	Completed after 1 iterations at t[s]:  11354.88
	FillingsUpdate:  mu: -0.160200000  nElectrons: 216.983540  magneticMoment: [ Abs: 1.14661  Tot: +0.91601 ]
	SubspaceRotationAdjust: set factor to 0.0642
ElecMinimize: Iter:  27  G: -336.437557237992337  |grad|_K:  6.089e-08  alpha:  2.999e-01  linmin: -6.984e-05  t[s]:  11400.39
	Linear fluid (dielectric constant: 78.4, screening length: 8.12261 Bohr) occupying 0.721389 of unit cell:	Completed after 0 iterations at t[s]:  11437.93
	Linear fluid (dielectric constant: 78.4, screening length: 8.12261 Bohr) occupying 0.721390 of unit cell:	Completed after 2 iterations at t[s]:  11471.51
	FillingsUpdate:  mu: -0.160200000  nElectrons: 216.983153  magneticMoment: [ Abs: 1.14633  Tot: +0.91593 ]
	SubspaceRotationAdjust: set factor to 0.0741
ElecMinimize: Iter:  28  G: -336.437557668940315  |grad|_K:  5.485e-08  alpha:  6.849e-01  linmin:  7.544e-04  t[s]:  11516.32
	Linear fluid (dielectric constant: 78.4, screening length: 8.12261 Bohr) occupying 0.721393 of unit cell:	Completed after 1 iterations at t[s]:  11555.24
	Linear fluid (dielectric constant: 78.4, screening length: 8.12261 Bohr) occupying 0.721393 of unit cell:	Completed after 0 iterations at t[s]:  11587.19
	FillingsUpdate:  mu: -0.160200000  nElectrons: 216.982393  magneticMoment: [ Abs: 1.14600  Tot: +0.91575 ]
	SubspaceRotationAdjust: set factor to 0.0843
ElecMinimize: Iter:  29  G: -336.437558044849197  |grad|_K:  4.154e-08  alpha:  7.239e-01  linmin: -1.855e-04  t[s]:  11631.78
	Linear fluid (dielectric constant: 78.4, screening length: 8.12261 Bohr) occupying 0.721395 of unit cell:	Completed after 2 iterations at t[s]:  11670.98
	Linear fluid (dielectric constant: 78.4, screening length: 8.12261 Bohr) occupying 0.721395 of unit cell:	Completed after 0 iterations at t[s]:  11702.73
	FillingsUpdate:  mu: -0.160200000  nElectrons: 216.982154  magneticMoment: [ Abs: 1.14616  Tot: +0.91600 ]
	SubspaceRotationAdjust: set factor to 0.0907
ElecMinimize: Iter:  30  G: -336.437558254494661  |grad|_K:  3.819e-08  alpha:  5.810e-01  linmin:  8.212e-05  t[s]:  11747.33
	Linear fluid (dielectric constant: 78.4, screening length: 8.12261 Bohr) occupying 0.721397 of unit cell:	Completed after 1 iterations at t[s]:  11786.01
	Linear fluid (dielectric constant: 78.4, screening length: 8.12261 Bohr) occupying 0.721397 of unit cell:	Completed after 0 iterations at t[s]:  11817.67
	FillingsUpdate:  mu: -0.160200000  nElectrons: 216.981284  magneticMoment: [ Abs: 1.14586  Tot: +0.91576 ]
	SubspaceRotationAdjust: set factor to 0.0974
ElecMinimize: Iter:  31  G: -336.437558411572468  |grad|_K:  3.053e-08  alpha:  5.437e-01  linmin: -3.029e-04  t[s]:  11862.67
	Linear fluid (dielectric constant: 78.4, screening length: 8.12261 Bohr) occupying 0.721398 of unit cell:	Completed after 0 iterations at t[s]:  11900.08
	Linear fluid (dielectric constant: 78.4, screening length: 8.12261 Bohr) occupying 0.721398 of unit cell:	Completed after 1 iterations at t[s]:  11933.15
	FillingsUpdate:  mu: -0.160200000  nElectrons: 216.980783  magneticMoment: [ Abs: 1.14606  Tot: +0.91603 ]
	SubspaceRotationAdjust: set factor to 0.117
ElecMinimize: Iter:  32  G: -336.437558540163479  |grad|_K:  3.193e-08  alpha:  7.630e-01  linmin:  2.380e-04  t[s]:  11977.78
	Linear fluid (dielectric constant: 78.4, screening length: 8.12261 Bohr) occupying 0.721399 of unit cell:	Completed after 2 iterations at t[s]:  12017.07
	Linear fluid (dielectric constant: 78.4, screening length: 8.12261 Bohr) occupying 0.721399 of unit cell:	Completed after 0 iterations at t[s]:  12048.78
	FillingsUpdate:  mu: -0.160200000  nElectrons: 216.980595  magneticMoment: [ Abs: 1.14636  Tot: +0.91638 ]
	SubspaceRotationAdjust: set factor to 0.0821
ElecMinimize: Iter:  33  G: -336.437558631603110  |grad|_K:  5.498e-08  alpha:  4.119e-01  linmin:  7.478e-04  t[s]:  12093.37
	Linear fluid (dielectric constant: 78.4, screening length: 8.12261 Bohr) occupying 0.721400 of unit cell:	Completed after 3 iterations at t[s]:  12133.29
	Linear fluid (dielectric constant: 78.4, screening length: 8.12261 Bohr) occupying 0.721399 of unit cell:	Completed after 1 iterations at t[s]:  12166.28
	FillingsUpdate:  mu: -0.160200000  nElectrons: 216.979989  magneticMoment: [ Abs: 1.14625  Tot: +0.91628 ]
	SubspaceRotationAdjust: set factor to 0.0776
ElecMinimize: Iter:  34  G: -336.437558642919328  |grad|_K:  2.532e-08  alpha:  1.213e-01  linmin:  2.196e-04  t[s]:  12210.94
ElecMinimize: Converged (|Delta G|<1.000000e-07 for 2 iters).
Setting wave functions to eigenvectors of Hamiltonian
Converging empty states (this may take a while): |deigs|: 1.255e-03
Single-point solvation energy estimate, DeltaG = -0.021455626958527

Computing DFT-D3 correction:
# coordination-number C 3.298 3.320 3.331 3.329 3.310 3.286 3.320 3.576 3.325 3.310 3.298 3.316 3.299 3.298 3.320 3.534 3.261 3.298 3.316 3.332 3.325 3.299 3.299 3.325 3.331 3.316 3.298 3.261 3.576 3.320 3.298 3.299 3.320 3.298 3.310 3.326 3.533 3.316 3.286 3.310 3.329 3.331 3.320 3.298 1.126
# coordination-number N 3.172 3.168 3.172 3.168
# coordination-number Ti 5.396
# coordination-number O 1.003
# diagonal-C6 C 24.30 24.08 23.96 23.99 24.18 24.41 24.08 20.58 24.03 24.18 24.30 24.12 24.29 24.30 24.08 21.15 24.62 24.31 24.12 23.96 24.02 24.29 24.29 24.03 23.96 24.12 24.30 24.62 20.58 24.08 24.30 24.29 24.08 24.30 24.18 24.02 21.15 24.12 24.41 24.19 23.99 23.96 24.08 24.31 42.53
# diagonal-C6 N 15.60 15.60 15.60 15.60
# diagonal-C6 Ti 321.59
# diagonal-C6 O 12.81
EvdW_6 =   -0.037591
EvdW_8 =   -0.030186

# Ionic positions in cartesian coordinates:
ion C  23.424986000000004   0.021063000000000   0.000049000000000 1
ion C  21.036470999999999   3.961892000000001  43.213290000000008 1
ion C  18.693038000000001   7.967490000000002  43.081883000000005 1
ion C  16.386144999999999  11.988491000000002  43.068005000000007 1
ion C  -9.376567000000000  15.986567000000003  43.189410000000009 1
ion C   4.678054000000001   0.122368000000000   0.052394000000000 1
ion C   2.280063000000000   4.131661000000000   0.182855000000000 1
ion C  -0.123928000000001   7.942418000000001   0.108846000000000 1
ion C  -2.432164000000000  11.956417000000004  43.188866000000004 1
ion C  -4.728618000000001  15.990997000000002  43.187217000000004 1
ion C   9.364107000000001   0.016203000000000   0.005808000000000 1
ion C   7.065728000000001   4.146105000000001   0.220603000000000 1
ion C  -0.034019000000001  15.885176000000003   0.030985000000000 1
ion C   2.336736999999998  19.847459000000001  43.253835000000009 1
ion C  11.746557000000001   3.956478000000001  43.225714000000011 1
ion C   9.467900000000000   7.951705000000001   0.152387000000000 1
ion C   4.665959000000001  15.741274000000002   0.188437000000000 1
ion C   6.987069000000002  19.849710000000002   0.000955000000000 1
ion C  16.391506000000000   3.935648000000000  43.136184000000007 1
ion C  14.083227000000004   7.964743000000001  43.078842000000009 1
ion C  11.766886000000000  11.966311000000001  43.198813000000008 1
ion C   9.362831000000002  15.886016000000001   0.053817000000000 1
ion C  -0.024909000000000   2.692406000000001   0.028479000000000 1
ion C  -2.429025000000000   6.617670000000001  43.187247000000006 1
ion C  -4.744360000000000  10.621106000000001  43.082180000000008 1
ion C  -7.051279000000001  14.649556000000002  43.137163000000008 1
ion C  -9.379940000000001  18.675635000000003  43.253613000000009 1
ion C   4.675505000000000   2.843784000000000   0.183629000000000 1
ion C  -0.125413000000000  10.635097000000004   0.111184000000000 1
ion C  -2.406516000000000  14.630103000000002  43.215176000000007 1
ion C  -4.729408000000000  18.680540000000004   0.000408000000000 1
ion C   9.372624000000002   2.706296000000000   0.050654000000000 1
ion C   2.272926000000000  14.449484000000000   0.188090000000000 1
ion C  -0.025468000000002  18.574537000000003   0.000588000000000 1
ion C  14.068620000000001   2.594869000000001  43.188144000000008 1
ion C  11.770647000000000   6.630162000000001  43.196671000000009 1
ion C   9.465944999999998  10.641020000000001   0.154799000000000 1
ion C   7.058187999999999  14.442632000000003   0.226048000000000 1
ion C   4.663590000000001  18.462600999999999   0.054259000000000 1
ion C  18.716221000000001   2.597588000000001  43.186371000000008 1
ion C  16.389056000000004   6.614865000000002  43.067376000000010 1
ion C  14.081617000000000  10.635481000000002  43.079379000000010 1
ion C  11.739115999999999  14.639818000000002  43.228307000000008 1
ion C   9.349610999999998  18.576045000000004   0.006953000000000 1
ion C   4.839515999999999   9.371354000000004   7.640142000000002 1
ion N   2.159812000000000  11.846146000000001   0.367413000000000 1
ion N   7.177949999999999  11.838317000000004   0.439987000000000 1
ion N   2.162998000000000   6.734627000000001   0.360435000000000 1
ion N   7.181811000000000   6.750317000000001   0.433407000000000 1
ion Ti   4.615947000000000   9.289327000000002   1.987164000000000 1
ion O   4.848291000000001   9.377097000000003   9.789512000000002 1

# Forces in Cartesian coordinates:
force C  -0.000039662540173  -0.000085307720280   0.000077028325414 1
force C   0.000118713780740  -0.000038920783845   0.000098835265058 1
force C   0.000076169872138  -0.000000665287889   0.000028477203584 1
force C  -0.000116014530578   0.000007155245048   0.000030914588427 1
force C  -0.000124127518527   0.000025743276381   0.000066044978608 1
force C  -0.000017654515638  -0.000103806092997   0.000111437164299 1
force C  -0.000004855154068   0.000038171564385   0.000430544727421 1
force C  -0.000027008630535  -0.000025888269229   0.000429456363961 1
force C  -0.000075289267391   0.000027708010925   0.000132612291934 1
force C  -0.000092575234094   0.000028830648196   0.000028104554676 1
force C   0.000017058046373  -0.000103844108625   0.000090361458663 1
force C  -0.000027580694027  -0.000181952648538   0.000415264844722 1
force C  -0.000068655441799   0.000010514729243   0.000174682971916 1
force C  -0.000034416827297   0.000071669266774   0.000077103443685 1
force C   0.000031249623642  -0.000052863648669   0.000208409553421 1
force C  -0.000070870559951   0.000008543014962   0.000673124835474 1
force C  -0.000038581974059   0.000067717894351   0.000337066319078 1
force C   0.000002777656850   0.000074883788199   0.000070072765766 1
force C   0.000062657029937  -0.000036041002630   0.000023496553492 1
force C   0.000046321197985  -0.000002815961772   0.000165245716052 1
force C   0.000073943606943   0.000029683148971   0.000376207012993 1
force C   0.000036329747754   0.000065487989507   0.000238135150977 1
force C  -0.000069350475204  -0.000025882338360   0.000157150605019 1
force C  -0.000077482556998  -0.000046093968040   0.000121004035377 1
force C  -0.000104793894924  -0.000017382656867   0.000031206710176 1
force C  -0.000116286895434   0.000016930761796   0.000025194104981 1
force C  -0.000124364509755   0.000048166736363   0.000069621237486 1
force C  -0.000039057494055  -0.000087611626953   0.000307237417933 1
force C  -0.000033387798412   0.000004723136940   0.000440099720254 1
force C  -0.000061416354182   0.000019517511623   0.000111035257573 1
force C  -0.000087886665754   0.000045506019123   0.000061278872993 1
force C   0.000035676422284  -0.000081130645641   0.000220778171299 1
force C  -0.000005115443269  -0.000056306610634   0.000458667697694 1
force C  -0.000039429817315   0.000066853603725   0.000083473864577 1
force C   0.000055038427289  -0.000044843253100   0.000064265764802 1
force C   0.000071630833737  -0.000047544210473   0.000366315516129 1
force C  -0.000067239085790  -0.000027326307085   0.000681609132093 1
force C  -0.000026213223995   0.000165068506606   0.000440574822111 1
force C  -0.000019285588337   0.000086790637051   0.000129527581137 1
force C   0.000084477058046  -0.000047568305922   0.000027003584843 1
force C   0.000062648214772  -0.000025402427821   0.000028536511212 1
force C   0.000046065854149  -0.000014054923168   0.000168006823604 1
force C   0.000030890099137   0.000034698271837   0.000219972086408 1
force C   0.000016237705046   0.000085761776389   0.000099187906143 1
force C   0.000323249003806   0.000054162502238  -0.006223267403275 1
force N  -0.000098072655403   0.000016149821066   0.000849321100836 1
force N   0.000149950163433   0.000164069148300   0.000766431483864 1
force N  -0.000102390760547  -0.000027311565148   0.000827192703005 1
force N   0.000153953105714  -0.000173585376369   0.000744766254479 1
force Ti  -0.000061054013011  -0.000047134395449   0.000292881663407 1
force O   0.000158973235614   0.000060492474605  -0.005461763128040 1

# Energy components:
   A_diel =        0.0239545713561465
   Eewald =     1543.8923498523213311
       EH =     1829.4360873703703874
     Eloc =    -3882.4527664266688589
      Enl =       50.3793784268780769
     EvdW =       -0.0677766542439644
      Exc =     -104.7178249777490038
 Exc_core =        3.2445037841274287
       KE =      189.0539922524395706
  MuShift =        0.0109084149801281
-------------------------------------
     Etot =     -371.1971933861887010
       TS =        0.0005594486793052
-------------------------------------
        F =     -371.1977528348680266
      muN =      -34.7601941919486777
-------------------------------------
        G =     -336.4375586429193277


Dumping 'jdft.fillings' ... done
Dumping 'jdft.wfns' ... done
Dumping 'jdft.fluidState' ... done
Dumping 'jdft.ionpos' ... done
Dumping 'jdft.lattice' ... done
Dumping 'jdft.eigenvals' ... done
Dumping 'jdft.eigStats' ... 
	eMin: -2.296782 at state 2 ( [ +0.000000 -0.333333 +0.000000 ] spin 1 )
	HOMO: -0.161567 at state 1 ( [ +0.000000 +0.333333 +0.000000 ] spin 1 )
	mu  : -0.160200
	LUMO: -0.159348 at state 8 ( [ -0.333333 -0.333333 +0.000000 ] spin 1 )
	eMax: +0.009672 at state 9 ( [ +0.000000 +0.000000 +0.000000 ] spin -1 )
	HOMO-LUMO gap: +0.002219
	Optical gap  : +0.005964 at state 8 ( [ -0.333333 -0.333333 +0.000000 ] spin 1 )
Dumping 'jdft.Ecomponents' ... done
IonicMinimize: Iter:   0  G: -336.437558642919328  |grad|_K:  6.993e-04  t[s]:  13013.33
IonicMinimize: None of the convergence criteria satisfied after 0 iterations.

#--- Lowdin population analysis ---
# oxidation-state C +0.050 +0.064 +0.049 +0.055 +0.046 +0.051 +0.175 +0.142 +0.037 +0.046 +0.050 +0.175 +0.037 +0.055 +0.064 +0.146 +0.010 +0.055 +0.048 +0.049 +0.037 +0.038 +0.037 +0.037 +0.049 +0.048 +0.055 +0.010 +0.142 +0.064 +0.055 +0.038 +0.175 +0.050 +0.046 +0.037 +0.145 +0.174 +0.051 +0.046 +0.055 +0.049 +0.063 +0.050 +0.268
# magnetic-moments C +0.001 +0.003 -0.001 +0.002 +0.001 +0.004 +0.005 +0.004 +0.004 +0.000 +0.001 +0.005 +0.004 -0.001 +0.004 +0.005 -0.010 -0.001 -0.002 +0.000 +0.003 +0.002 +0.004 +0.004 -0.001 -0.002 -0.001 -0.010 +0.004 +0.003 -0.001 +0.002 +0.005 +0.001 +0.001 +0.003 +0.005 +0.005 +0.004 +0.000 +0.002 +0.000 +0.004 +0.001 +0.000
# oxidation-state N -0.293 -0.294 -0.292 -0.294
# magnetic-moments N -0.023 -0.024 -0.023 -0.024
# oxidation-state Ti +1.410
# magnetic-moments Ti +0.920
# oxidation-state O -0.041
# magnetic-moments O +0.000


Dumping 'jdft.n_up' ... done
Dumping 'jdft.n_dn' ... done
Dumping 'jdft.tau_up' ... done
Dumping 'jdft.tau_dn' ... done
Dumping 'jdft.eigenvals' ... done
Dumping 'jdft.eigStats' ... 
	eMin: -2.296782 at state 2 ( [ +0.000000 -0.333333 +0.000000 ] spin 1 )
	HOMO: -0.161567 at state 1 ( [ +0.000000 +0.333333 +0.000000 ] spin 1 )
	mu  : -0.160200
	LUMO: -0.159348 at state 8 ( [ -0.333333 -0.333333 +0.000000 ] spin 1 )
	eMax: +0.009672 at state 9 ( [ +0.000000 +0.000000 +0.000000 ] spin -1 )
	HOMO-LUMO gap: +0.002219
	Optical gap  : +0.005964 at state 8 ( [ -0.333333 -0.333333 +0.000000 ] spin 1 )
Dumping 'jdft.kPts' ... done
Dumping 'jdft.dosUp' ... done.
Dumping 'jdft.dosDn' ... done.
End date and time: Tue Mar 14 17:12:28 2023  (Duration: 0-3:38:01.47)
Done!

PROFILER:             augmentDensityGrid     0.848885 +/-     1.155021 s,  840 calls,    713.063348 s total
PROFILER:         augmentDensityGridGrad     0.471386 +/-     0.504557 s,  420 calls,    197.981933 s total
PROFILER:        augmentDensitySpherical     0.000276 +/-     0.000358 s,  840 calls,      0.232234 s total
PROFILER:    augmentDensitySphericalGrad     0.000231 +/-     0.000316 s,  636 calls,      0.146995 s total
PROFILER:                 augmentOverlap     1.445763 +/-     2.035908 s, 1536 calls,   2220.692684 s total
PROFILER:        ColumnBundle::randomize     0.004979 +/-     0.000000 s,    1 calls,      0.004979 s total
PROFILER:                     diagouterI    15.569438 +/-     3.700239 s,  213 calls,   3316.290290 s total
PROFILER:              EdensityAndVscloc     4.222994 +/-     5.236598 s,  211 calls,    891.051700 s total
PROFILER:                     EnlAndGrad     0.000783 +/-     0.001290 s,  780 calls,      0.610390 s total
PROFILER:            ExCorrCommunication     0.050756 +/-     0.073621 s, 1279 calls,     64.916580 s total
PROFILER:               ExCorrFunctional     0.026446 +/-     0.003460 s,  215 calls,      5.685813 s total
PROFILER:                    ExCorrTotal     0.569614 +/-     0.179464 s,  215 calls,    122.467102 s total
PROFILER:                   Idag_DiagV_I    22.025988 +/-    13.866396 s,  158 calls,   3480.106127 s total
PROFILER:                    initWeights     1.823934 +/-     0.000000 s,    1 calls,      1.823934 s total
PROFILER:                    inv(matrix)     0.001374 +/-     0.000033 s,  137 calls,      0.188175 s total
PROFILER:            matrix::diagonalize     0.007123 +/-     0.004206 s,  362 calls,      2.578509 s total
PROFILER:                    matrix::set     0.000002 +/-     0.000003 s, 18544 calls,      0.033362 s total
PROFILER:            orthoMatrix(matrix)     0.000857 +/-     0.000433 s,  191 calls,      0.163694 s total
PROFILER:     RadialFunctionR::transform     0.003999 +/-     0.021104 s,  141 calls,      0.563880 s total
PROFILER:                    reduceKmesh     0.000000 +/-     0.000000 s,    1 calls,      0.000000 s total
PROFILER:   VanDerWaalsD3::energyAndGrad     0.030056 +/-     0.001839 s,    3 calls,      0.090168 s total
PROFILER:               WavefunctionDrag    13.823083 +/-     0.000000 s,    1 calls,     13.823083 s total
PROFILER:                            Y*M     0.633130 +/-     0.800377 s, 3000 calls,   1899.390867 s total
PROFILER:                          Y1^Y2     0.605078 +/-     0.805334 s, 2079 calls,   1257.957412 s total

MEMUSAGE:                   ColumnBundle     1.307997 GB
MEMUSAGE:        complexScalarFieldTilde     0.024719 GB
MEMUSAGE:                    IndexArrays     0.023178 GB
MEMUSAGE:                         matrix     0.020558 GB
MEMUSAGE:                           misc     0.050872 GB
MEMUSAGE:                    ScalarField     0.358429 GB
MEMUSAGE:               ScalarFieldTilde     0.262436 GB
MEMUSAGE:                          Total     1.587284 GB
