
*************** JDFTx 1.7.0 (git hash 5f12716a) ***************

Start date and time: Tue Mar 14 13:34:41 2023
Executable /home/nisi6161/jdftx_alpine/build/jdftx with command-line: -i in
Running on hosts (process indices):  c3cpu-a9-u3-2.rc.int.colorado.edu (0-17)
Divided in process groups (process indices):  0 (0)  1 (1)  2 (2)  3 (3)  4 (4)  5 (5)  6 (6)  7 (7)  8 (8)  9 (9)  10 (10)  11 (11)  12 (12)  13 (13)  14 (14)  15 (15)  16 (16)  17 (17)
Resource initialization completed at t[s]:      0.02
Run totals: 18 processes, 64 threads, 0 GPUs


Input parsed successfully to the following command list (including defaults):

basis kpoint-dependent
converge-empty-states yes
coords-type Cartesian
core-overlap-check none
coulomb-interaction Periodic
davidson-band-ratio 1.1
density-of-states Etol 1.000000e-06 Esigma 1.000000e-03 \
		Complete \
	Total \
	OrthoOrbital C 1   s \
	OrthoOrbital C 1   p \
	OrthoOrbital C 1   px \
	OrthoOrbital C 1   py \
	OrthoOrbital C 1   pz \
	OrthoOrbital C 2   s \
	OrthoOrbital C 2   p \
	OrthoOrbital C 2   px \
	OrthoOrbital C 2   py \
	OrthoOrbital C 2   pz \
	OrthoOrbital C 3   s \
	OrthoOrbital C 3   p \
	OrthoOrbital C 3   px \
	OrthoOrbital C 3   py \
	OrthoOrbital C 3   pz \
	OrthoOrbital C 4   s \
	OrthoOrbital C 4   p \
	OrthoOrbital C 4   px \
	OrthoOrbital C 4   py \
	OrthoOrbital C 4   pz \
	OrthoOrbital C 5   s \
	OrthoOrbital C 5   p \
	OrthoOrbital C 5   px \
	OrthoOrbital C 5   py \
	OrthoOrbital C 5   pz \
	OrthoOrbital C 6   s \
	OrthoOrbital C 6   p \
	OrthoOrbital C 6   px \
	OrthoOrbital C 6   py \
	OrthoOrbital C 6   pz \
	OrthoOrbital C 7   s \
	OrthoOrbital C 7   p \
	OrthoOrbital C 7   px \
	OrthoOrbital C 7   py \
	OrthoOrbital C 7   pz \
	OrthoOrbital C 8   s \
	OrthoOrbital C 8   p \
	OrthoOrbital C 8   px \
	OrthoOrbital C 8   py \
	OrthoOrbital C 8   pz \
	OrthoOrbital C 9   s \
	OrthoOrbital C 9   p \
	OrthoOrbital C 9   px \
	OrthoOrbital C 9   py \
	OrthoOrbital C 9   pz \
	OrthoOrbital C 10   s \
	OrthoOrbital C 10   p \
	OrthoOrbital C 10   px \
	OrthoOrbital C 10   py \
	OrthoOrbital C 10   pz \
	OrthoOrbital C 11   s \
	OrthoOrbital C 11   p \
	OrthoOrbital C 11   px \
	OrthoOrbital C 11   py \
	OrthoOrbital C 11   pz \
	OrthoOrbital C 12   s \
	OrthoOrbital C 12   p \
	OrthoOrbital C 12   px \
	OrthoOrbital C 12   py \
	OrthoOrbital C 12   pz \
	OrthoOrbital C 13   s \
	OrthoOrbital C 13   p \
	OrthoOrbital C 13   px \
	OrthoOrbital C 13   py \
	OrthoOrbital C 13   pz \
	OrthoOrbital C 14   s \
	OrthoOrbital C 14   p \
	OrthoOrbital C 14   px \
	OrthoOrbital C 14   py \
	OrthoOrbital C 14   pz \
	OrthoOrbital C 15   s \
	OrthoOrbital C 15   p \
	OrthoOrbital C 15   px \
	OrthoOrbital C 15   py \
	OrthoOrbital C 15   pz \
	OrthoOrbital C 16   s \
	OrthoOrbital C 16   p \
	OrthoOrbital C 16   px \
	OrthoOrbital C 16   py \
	OrthoOrbital C 16   pz \
	OrthoOrbital C 17   s \
	OrthoOrbital C 17   p \
	OrthoOrbital C 17   px \
	OrthoOrbital C 17   py \
	OrthoOrbital C 17   pz \
	OrthoOrbital C 18   s \
	OrthoOrbital C 18   p \
	OrthoOrbital C 18   px \
	OrthoOrbital C 18   py \
	OrthoOrbital C 18   pz \
	OrthoOrbital C 19   s \
	OrthoOrbital C 19   p \
	OrthoOrbital C 19   px \
	OrthoOrbital C 19   py \
	OrthoOrbital C 19   pz \
	OrthoOrbital C 20   s \
	OrthoOrbital C 20   p \
	OrthoOrbital C 20   px \
	OrthoOrbital C 20   py \
	OrthoOrbital C 20   pz \
	OrthoOrbital C 21   s \
	OrthoOrbital C 21   p \
	OrthoOrbital C 21   px \
	OrthoOrbital C 21   py \
	OrthoOrbital C 21   pz \
	OrthoOrbital C 22   s \
	OrthoOrbital C 22   p \
	OrthoOrbital C 22   px \
	OrthoOrbital C 22   py \
	OrthoOrbital C 22   pz \
	OrthoOrbital C 23   s \
	OrthoOrbital C 23   p \
	OrthoOrbital C 23   px \
	OrthoOrbital C 23   py \
	OrthoOrbital C 23   pz \
	OrthoOrbital C 24   s \
	OrthoOrbital C 24   p \
	OrthoOrbital C 24   px \
	OrthoOrbital C 24   py \
	OrthoOrbital C 24   pz \
	OrthoOrbital C 25   s \
	OrthoOrbital C 25   p \
	OrthoOrbital C 25   px \
	OrthoOrbital C 25   py \
	OrthoOrbital C 25   pz \
	OrthoOrbital C 26   s \
	OrthoOrbital C 26   p \
	OrthoOrbital C 26   px \
	OrthoOrbital C 26   py \
	OrthoOrbital C 26   pz \
	OrthoOrbital C 27   s \
	OrthoOrbital C 27   p \
	OrthoOrbital C 27   px \
	OrthoOrbital C 27   py \
	OrthoOrbital C 27   pz \
	OrthoOrbital C 28   s \
	OrthoOrbital C 28   p \
	OrthoOrbital C 28   px \
	OrthoOrbital C 28   py \
	OrthoOrbital C 28   pz \
	OrthoOrbital C 29   s \
	OrthoOrbital C 29   p \
	OrthoOrbital C 29   px \
	OrthoOrbital C 29   py \
	OrthoOrbital C 29   pz \
	OrthoOrbital C 30   s \
	OrthoOrbital C 30   p \
	OrthoOrbital C 30   px \
	OrthoOrbital C 30   py \
	OrthoOrbital C 30   pz \
	OrthoOrbital C 31   s \
	OrthoOrbital C 31   p \
	OrthoOrbital C 31   px \
	OrthoOrbital C 31   py \
	OrthoOrbital C 31   pz \
	OrthoOrbital C 32   s \
	OrthoOrbital C 32   p \
	OrthoOrbital C 32   px \
	OrthoOrbital C 32   py \
	OrthoOrbital C 32   pz \
	OrthoOrbital C 33   s \
	OrthoOrbital C 33   p \
	OrthoOrbital C 33   px \
	OrthoOrbital C 33   py \
	OrthoOrbital C 33   pz \
	OrthoOrbital C 34   s \
	OrthoOrbital C 34   p \
	OrthoOrbital C 34   px \
	OrthoOrbital C 34   py \
	OrthoOrbital C 34   pz \
	OrthoOrbital C 35   s \
	OrthoOrbital C 35   p \
	OrthoOrbital C 35   px \
	OrthoOrbital C 35   py \
	OrthoOrbital C 35   pz \
	OrthoOrbital C 36   s \
	OrthoOrbital C 36   p \
	OrthoOrbital C 36   px \
	OrthoOrbital C 36   py \
	OrthoOrbital C 36   pz \
	OrthoOrbital C 37   s \
	OrthoOrbital C 37   p \
	OrthoOrbital C 37   px \
	OrthoOrbital C 37   py \
	OrthoOrbital C 37   pz \
	OrthoOrbital C 38   s \
	OrthoOrbital C 38   p \
	OrthoOrbital C 38   px \
	OrthoOrbital C 38   py \
	OrthoOrbital C 38   pz \
	OrthoOrbital C 39   s \
	OrthoOrbital C 39   p \
	OrthoOrbital C 39   px \
	OrthoOrbital C 39   py \
	OrthoOrbital C 39   pz \
	OrthoOrbital C 40   s \
	OrthoOrbital C 40   p \
	OrthoOrbital C 40   px \
	OrthoOrbital C 40   py \
	OrthoOrbital C 40   pz \
	OrthoOrbital C 41   s \
	OrthoOrbital C 41   p \
	OrthoOrbital C 41   px \
	OrthoOrbital C 41   py \
	OrthoOrbital C 41   pz \
	OrthoOrbital C 42   s \
	OrthoOrbital C 42   p \
	OrthoOrbital C 42   px \
	OrthoOrbital C 42   py \
	OrthoOrbital C 42   pz \
	OrthoOrbital C 43   s \
	OrthoOrbital C 43   p \
	OrthoOrbital C 43   px \
	OrthoOrbital C 43   py \
	OrthoOrbital C 43   pz \
	OrthoOrbital C 44   s \
	OrthoOrbital C 44   p \
	OrthoOrbital C 44   px \
	OrthoOrbital C 44   py \
	OrthoOrbital C 44   pz \
	OrthoOrbital N 1   s \
	OrthoOrbital N 1   p \
	OrthoOrbital N 1   px \
	OrthoOrbital N 1   py \
	OrthoOrbital N 1   pz \
	OrthoOrbital N 2   s \
	OrthoOrbital N 2   p \
	OrthoOrbital N 2   px \
	OrthoOrbital N 2   py \
	OrthoOrbital N 2   pz \
	OrthoOrbital N 3   s \
	OrthoOrbital N 3   p \
	OrthoOrbital N 3   px \
	OrthoOrbital N 3   py \
	OrthoOrbital N 3   pz \
	OrthoOrbital N 4   s \
	OrthoOrbital N 4   p \
	OrthoOrbital N 4   px \
	OrthoOrbital N 4   py \
	OrthoOrbital N 4   pz \
	OrthoOrbital Ti 1   s \
	OrthoOrbital Ti 1   p \
	OrthoOrbital Ti 1   px \
	OrthoOrbital Ti 1   py \
	OrthoOrbital Ti 1   pz \
	OrthoOrbital Ti 1   d \
	OrthoOrbital Ti 1   dxy \
	OrthoOrbital Ti 1   dyz \
	OrthoOrbital Ti 1   dz2 \
	OrthoOrbital Ti 1   dxz \
	OrthoOrbital Ti 1   dx2-y2 \
	OrthoOrbital C 1   s \
	OrthoOrbital C 1   p \
	OrthoOrbital C 1   px \
	OrthoOrbital C 1   py \
	OrthoOrbital C 1   pz \
	OrthoOrbital O 1   s \
	OrthoOrbital O 1   p \
	OrthoOrbital O 1   px \
	OrthoOrbital O 1   py \
	OrthoOrbital O 1   pz \
	OrthoOrbital O 2   s \
	OrthoOrbital O 2   p \
	OrthoOrbital O 2   px \
	OrthoOrbital O 2   py \
	OrthoOrbital O 2   pz \
	OrthoOrbital H 1   s
dump End ElecDensity KEdensity BandEigs EigStats RhoAtom DOS Kpoints
dump Ionic State IonicPositions Lattice EigStats Ecomponents
dump 
dump 
dump 
dump 
dump 
dump 
dump 
dump 
dump-name jdft.$VAR
elec-cutoff 20
elec-eigen-algo Davidson
elec-ex-corr gga-PBE
elec-initial-magnetization 0.000000 no
elec-n-bands 135
elec-smearing Fermi 0.001
electronic-minimize  \
	dirUpdateScheme      FletcherReeves \
	linminMethod         DirUpdateRecommended \
	nIterations          100 \
	history              15 \
	knormThreshold       0 \
	energyDiffThreshold  1e-07 \
	nEnergyDiff          2 \
	alphaTstart          1 \
	alphaTmin            1e-10 \
	updateTestStepSize   yes \
	alphaTreduceFactor   0.1 \
	alphaTincreaseFactor 3 \
	nAlphaAdjustMax      3 \
	wolfeEnergy          0.0001 \
	wolfeGradient        0.9 \
	fdTest               no
exchange-regularization WignerSeitzTruncated
fluid LinearPCM 298.000000 1.013250
fluid-anion F- 0.5 MeanFieldLJ \
	epsBulk 1 \
	pMol 0 \
	epsInf 1 \
	Pvap 0 \
	sigmaBulk 0 \
	Rvdw 2.24877 \
	Res 0 \
	tauNuc 343133
fluid-cation Na+ 0.5 MeanFieldLJ \
	epsBulk 1 \
	pMol 0 \
	epsInf 1 \
	Pvap 0 \
	sigmaBulk 0 \
	Rvdw 2.19208 \
	Res 0 \
	tauNuc 343133
fluid-ex-corr lda-TF lda-PZ
fluid-gummel-loop 10 1.000000e-05
fluid-minimize  \
	dirUpdateScheme      PolakRibiere \
	linminMethod         DirUpdateRecommended \
	nIterations          400 \
	history              15 \
	knormThreshold       1e-11 \
	energyDiffThreshold  0 \
	nEnergyDiff          2 \
	alphaTstart          1 \
	alphaTmin            1e-10 \
	updateTestStepSize   yes \
	alphaTreduceFactor   0.1 \
	alphaTincreaseFactor 3 \
	nAlphaAdjustMax      6 \
	wolfeEnergy          0.0001 \
	wolfeGradient        0.9 \
	fdTest               no
fluid-solvent H2O 55.338 ScalarEOS \
	epsBulk 78.4 \
	pMol 0.92466 \
	epsInf 1.77 \
	Pvap 1.06736e-10 \
	sigmaBulk 4.62e-05 \
	Rvdw 2.61727 \
	Res 1.42 \
	tauNuc 343133 \
	poleEl 15 7 1
forces-output-coords Positions
ion C   0.003071000000000   0.029131000000000  43.251468000000010 1
ion C  21.041977000000003   3.983563000000001  43.207563000000007 1
ion C  18.703417999999999   7.987162000000001  43.072647000000011 1
ion C  -7.040472000000002  11.993798000000002  43.070960000000007 1
ion C  -9.371116000000002  16.004785000000002  43.184507000000011 1
ion C   4.686244000000000   0.141957000000000   0.035470000000000 1
ion C   2.288414000000000   4.161251000000001   0.144217000000000 1
ion C  -0.117035000000000   7.969659000000002   0.055930000000000 1
ion C  -2.427321000000003  11.976053000000004  43.162057000000004 1
ion C  -4.716639000000000  16.007939000000004  43.187579000000007 1
ion C   9.370582000000002   0.034068000000000  43.248916000000008 1
ion C   7.079129000000000   4.160560000000001   0.126654000000000 1
ion C  -0.019893000000000  15.902554000000002   0.020028000000000 1
ion C   2.344640999999999  19.866570000000003  43.246840000000006 1
ion C  11.761616000000004   3.975839000000001  43.198522000000004 1
ion C   9.478028999999999   7.976308000000001   0.034692000000000 1
ion C   4.674338000000001  15.761275000000001   0.125270000000000 1
ion C   6.998015999999998  19.870761000000005  43.246018000000007 1
ion C  16.401743000000003   3.958633000000000  43.138829000000008 1
ion C  14.094618999999998   7.983364000000001  43.070138000000007 1
ion C  11.783163000000004  11.987602000000003  43.152801000000004 1
ion C   9.369059000000000  15.912177000000005   0.007656000000000 1
ion C  -0.009389000000000   2.718197000000000   0.022580000000000 1
ion C  -2.422987000000001   6.640598000000002  43.163442000000011 1
ion C  -4.735016000000002  10.643658000000004  43.072344000000008 1
ion C  -7.042902000000001  14.668728000000003  43.138785000000006 1
ion C  -9.372459000000001  18.699347000000003  43.248224000000008 1
ion C   4.684233000000001   2.866784000000000   0.130028000000000 1
ion C  -0.119364000000001  10.650793000000002   0.054243000000000 1
ion C  -2.402799000000001  14.651162000000003  43.206136000000008 1
ion C  -4.719435000000001  18.702301000000002  43.247748000000009 1
ion C   9.378934000000001   2.722912000000000   0.010728000000000 1
ion C   2.280229000000000  14.463609000000003   0.139718000000000 1
ion C  -0.011505999999999  18.591537000000002  43.250517000000009 1
ion C  14.075432000000001   2.619142000000001  43.184680000000007 1
ion C  11.787158000000000   6.650691000000000  43.154488000000008 1
ion C   9.476156000000000  10.658580000000002   0.032702000000000 1
ion C   7.071406999999999  14.471456999999999   0.121723000000000 1
ion C   4.672174000000000  18.485882000000004   0.032485000000000 1
ion C  18.730179000000000   2.623155000000001  43.187406000000010 1
ion C  16.399968999999999   6.633483000000000  43.071262000000004 1
ion C  14.092564000000003  10.658294000000000  43.069792000000007 1
ion C  11.753499999999999  14.662510000000005  43.196576000000007 1
ion C   9.356623000000003  18.600924000000003  43.247402000000008 1
ion C   4.704048000000002   9.318946000000002   5.631539000000001 1
ion N   2.171814000000000  11.853854000000004   0.284280000000000 1
ion N   7.183784000000001  11.862390000000000   0.252660000000000 1
ion N   2.176118000000001   6.771136000000001   0.288563000000000 1
ion N   7.187404000000000   6.769917000000002   0.257418000000000 1
ion Ti   4.704048000000002   9.318946000000002   1.852106000000000 1
ion O   4.702658999999999  11.142155000000002   7.158271000000001 1
ion O   4.705448999999999   7.509904000000001   7.175098000000001 1
ion H   4.701299999999997  12.895255000000004   7.625050000000002 1
ion-species /projects/musgravc/apps/jdftx-1.6.0/build/pseudopotentials/GBRV_v1.5/$ID_pbe_v1.uspp
ion-species /projects/musgravc/apps/jdftx-1.6.0/build/pseudopotentials/GBRV_v1.5/$ID_pbe_v1.2.uspp
ion-species /projects/musgravc/apps/jdftx-1.6.0/build/pseudopotentials/GBRV_v1.5/$ID_pbe_v1.4.uspp
ion-species /projects/musgravc/apps/jdftx-1.6.0/build/pseudopotentials/GBRV_v1.5/$ID_pbe_v1.5.uspp
ion-width Ecut
ionic-minimize  \
	dirUpdateScheme      L-BFGS \
	linminMethod         DirUpdateRecommended \
	nIterations          0 \
	history              15 \
	knormThreshold       0.0001 \
	energyDiffThreshold  1e-06 \
	nEnergyDiff          2 \
	alphaTstart          1 \
	alphaTmin            1e-10 \
	updateTestStepSize   yes \
	alphaTreduceFactor   0.1 \
	alphaTincreaseFactor 3 \
	nAlphaAdjustMax      3 \
	wolfeEnergy          0.0001 \
	wolfeGradient        0.9 \
	fdTest               no
kpoint   0.000000000000   0.000000000000   0.000000000000  1.00000000000000
kpoint-folding 3 3 1 
latt-move-scale 0 0 0
latt-scale 1 1 1 
lattice  \
	  23.436261999999999  -11.733459000000000    0.000000000000000  \
	   0.017994000000000   19.941849000000001    0.000000000000000  \
	   0.000000000000000    0.000000000000000   43.256312999999999 
lattice-minimize  \
	dirUpdateScheme      L-BFGS \
	linminMethod         DirUpdateRecommended \
	nIterations          0 \
	history              15 \
	knormThreshold       0 \
	energyDiffThreshold  1e-06 \
	nEnergyDiff          2 \
	alphaTstart          1 \
	alphaTmin            1e-10 \
	updateTestStepSize   yes \
	alphaTreduceFactor   0.1 \
	alphaTincreaseFactor 3 \
	nAlphaAdjustMax      3 \
	wolfeEnergy          0.0001 \
	wolfeGradient        0.9 \
	fdTest               no
lcao-params 30 1e-06 0.001
pcm-variant CANDLE
spintype z-spin
subspace-rotation-factor 1 yes
symmetries none
symmetry-threshold 0.0001
target-mu -0.1602 no

van-der-waals D3


Applied RMS atom displacement 0 bohrs to make symmetries exact.

---------- Initializing the Grid ----------
R = 
[      23.4363     -11.7335            0  ]
[     0.017994      19.9418            0  ]
[            0            0      43.2563  ]
unit cell volume = 20225.5
G =
[   0.267976   0.157673         -0  ]
[ -0.000241801   0.314933          0  ]
[          0         -0   0.145255  ]
Minimum fftbox size, Smin = [  96  96  176  ]
Chosen fftbox size, S = [  96  96  180  ]

---------- Exchange Correlation functional ----------
Initalized PBE GGA exchange.
Initalized PBE GGA correlation.

---------- Setting up pseudopotentials ----------
Width of ionic core gaussian charges (only for fluid interactions / plotting) set to 0.397384

Reading pseudopotential file '/projects/musgravc/apps/jdftx-1.6.0/build/pseudopotentials/GBRV_v1.5/c_pbe_v1.2.uspp':
  Title: C.  Created by USPP 7.3.6 on 3-2-2014
  Reference state energy: -5.406344.  4 valence electrons in orbitals:
    |200>  occupation: 2  eigenvalue: -0.504890
    |210>  occupation: 2  eigenvalue: -0.194356
  lMax: 1  lLocal: 2  QijEcut: 5
  4 projectors sampled on a log grid with 503 points:
    l: 0  eig: -0.504890  rCut: 1.3
    l: 0  eig: 0.000000  rCut: 1.3
    l: 1  eig: -0.194357  rCut: 1.3
    l: 1  eig: 0.000000  rCut: 1.3
  Partial core density with radius 1.1
  Transforming core density to a uniform radial grid of dG=0.02 with 1464 points.
  Transforming local potential to a uniform radial grid of dG=0.02 with 1464 points.
  Transforming nonlocal projectors to a uniform radial grid of dG=0.02 with 432 points.
  Transforming density augmentations to a uniform radial grid of dG=0.02 with 1464 points.
  Transforming atomic orbitals to a uniform radial grid of dG=0.02 with 432 points.
  Core radius for overlap checks: 1.30 bohrs.

Reading pseudopotential file '/projects/musgravc/apps/jdftx-1.6.0/build/pseudopotentials/GBRV_v1.5/n_pbe_v1.2.uspp':
  Title: N.  Created by USPP 7.3.6 on 3-2-2014
  Reference state energy: -9.763716.  5 valence electrons in orbitals:
    |200>  occupation: 2  eigenvalue: -0.681964
    |210>  occupation: 3  eigenvalue: -0.260726
  lMax: 1  lLocal: 2  QijEcut: 6
  4 projectors sampled on a log grid with 491 points:
    l: 0  eig: -0.681964  rCut: 1.15
    l: 0  eig: 0.000000  rCut: 1.15
    l: 1  eig: -0.260729  rCut: 1.2
    l: 1  eig: 0.500000  rCut: 1.2
  Partial core density with radius 0.8
  Transforming core density to a uniform radial grid of dG=0.02 with 1464 points.
  Transforming local potential to a uniform radial grid of dG=0.02 with 1464 points.
  Transforming nonlocal projectors to a uniform radial grid of dG=0.02 with 432 points.
  Transforming density augmentations to a uniform radial grid of dG=0.02 with 1464 points.
  Transforming atomic orbitals to a uniform radial grid of dG=0.02 with 432 points.
  Core radius for overlap checks: 1.20 bohrs.

Reading pseudopotential file '/projects/musgravc/apps/jdftx-1.6.0/build/pseudopotentials/GBRV_v1.5/ti_pbe_v1.4.uspp':
  Title: Ti.  Created by USPP 7.3.6 on 31-3-15
  Reference state energy: -59.020943.  12 valence electrons in orbitals:
    |300>  occupation: 2  eigenvalue: -2.777623
    |310>  occupation: 6  eigenvalue: -1.894596
    |400>  occupation: 2  eigenvalue: -0.438610
    |320>  occupation: 1  eigenvalue: -0.583119
  lMax: 2  lLocal: 3  QijEcut: 6
  6 projectors sampled on a log grid with 597 points:
    l: 0  eig: -2.777624  rCut: 1.8
    l: 0  eig: -0.438611  rCut: 1.8
    l: 1  eig: -1.894596  rCut: 1.8
    l: 1  eig: 0.500000  rCut: 1.8
    l: 2  eig: -0.583118  rCut: 1.8
    l: 2  eig: 0.150000  rCut: 1.8
  Partial core density with radius 0.8
  Transforming core density to a uniform radial grid of dG=0.02 with 1464 points.
  Transforming local potential to a uniform radial grid of dG=0.02 with 1464 points.
  Transforming nonlocal projectors to a uniform radial grid of dG=0.02 with 432 points.
  Transforming density augmentations to a uniform radial grid of dG=0.02 with 1464 points.
  Transforming atomic orbitals to a uniform radial grid of dG=0.02 with 432 points.
  Core radius for overlap checks: 1.80 bohrs.

Reading pseudopotential file '/projects/musgravc/apps/jdftx-1.6.0/build/pseudopotentials/GBRV_v1.5/o_pbe_v1.2.uspp':
  Title: O.  Created by USPP 7.3.6 on 3-2-2014
  Reference state energy: -15.894388.  6 valence electrons in orbitals:
    |200>  occupation: 2  eigenvalue: -0.878823
    |210>  occupation: 4  eigenvalue: -0.332131
  lMax: 2  lLocal: 2  QijEcut: 6
  5 projectors sampled on a log grid with 511 points:
    l: 0  eig: -0.878823  rCut: 1.25
    l: 0  eig: 0.000000  rCut: 1.25
    l: 1  eig: -0.332132  rCut: 1.25
    l: 1  eig: 0.000000  rCut: 1.25
    l: 2  eig: 1.000000  rCut: 1.25
  Partial core density with radius 0.7
  Transforming core density to a uniform radial grid of dG=0.02 with 1464 points.
  Transforming local potential to a uniform radial grid of dG=0.02 with 1464 points.
  Transforming nonlocal projectors to a uniform radial grid of dG=0.02 with 432 points.
  Transforming density augmentations to a uniform radial grid of dG=0.02 with 1464 points.
  Transforming atomic orbitals to a uniform radial grid of dG=0.02 with 432 points.
  Core radius for overlap checks: 1.25 bohrs.

Reading pseudopotential file '/projects/musgravc/apps/jdftx-1.6.0/build/pseudopotentials/GBRV_v1.5/h_pbe_v1.4.uspp':
  Title: H.  Created by USPP 7.3.6 on 2-4-15
  Reference state energy: -0.458849.  1 valence electrons in orbitals:
    |100>  occupation: 1  eigenvalue: -0.238595
  lMax: 0  lLocal: 1  QijEcut: 6
  2 projectors sampled on a log grid with 395 points:
    l: 0  eig: -0.238595  rCut: 1.2
    l: 0  eig: 1.000000  rCut: 1.2
  Transforming local potential to a uniform radial grid of dG=0.02 with 1464 points.
  Transforming nonlocal projectors to a uniform radial grid of dG=0.02 with 432 points.
  Transforming density augmentations to a uniform radial grid of dG=0.02 with 1464 points.
  Transforming atomic orbitals to a uniform radial grid of dG=0.02 with 432 points.
  Core radius for overlap checks: 1.20 bohrs.

Initialized 5 species with 53 total atoms.

Folded 1 k-points by 3x3x1 to 9 k-points.

---------- Setting up k-points, bands, fillings ----------
No reducable k-points. 
Computing the number of bands and number of electrons
Calculating initial fillings.
nElectrons: 225.000000   nBands: 135   nStates: 18

----- Setting up reduced wavefunction bases (one per k-point) -----
average nbasis = 86412.556 , ideal nbasis = 86404.907

----- Initializing Supercell corresponding to k-point mesh -----
Lattice vector linear combinations in supercell:
[   3   0   0  ]
[   0   3   0  ]
[   0   0   1  ]
Supercell lattice vectors:
[  70.3088  -35.2004  0  ]
[  0.053982  59.8255  0  ]
[  0  0  43.2563  ]

Initializing DFT-D3 calculator:
	Parameters set for gga-PBE functional
	s6:  1.000  s_r6:  1.217
	s8:  0.722  s_r8:  1.000
	Per-atom parameters loaded for:
	 C:  sqrtQ[a0]:  3.105  Rcov[a0]:  1.417  CN: [ 0.00 0.99 2.00 3.00 3.98 ]
	 N:  sqrtQ[a0]:  2.712  Rcov[a0]:  1.342  CN: [ 0.00 0.99 2.01 2.99 ]
	Ti:  sqrtQ[a0]:  6.288  Rcov[a0]:  2.305  CN: [ 0.00 1.83 3.87 ]
	 O:  sqrtQ[a0]:  2.594  Rcov[a0]:  1.191  CN: [ 0.00 0.99 1.99 ]
	 H:  sqrtQ[a0]:  2.007  Rcov[a0]:  0.605  CN: [ 0.91 0.00 ]

Initializing DFT-D2 calculator for fluid / solvation:
	 C:  C6:   30.35 Eh-a0^6  R0: 2.744 a0
	 N:  C6:   21.33 Eh-a0^6  R0: 2.640 a0
	Ti:  C6:  187.33 Eh-a0^6  R0: 2.952 a0
	 O:  C6:   12.14 Eh-a0^6  R0: 2.536 a0
	 H:  C6:    2.43 Eh-a0^6  R0: 1.892 a0

---------- Setting up ewald sum ----------
Optimum gaussian width for ewald sums = 5.608291 bohr.
Real space sum over 567 unit cells with max indices [  4  4  3  ]
Reciprocal space sum over 7803 terms with max indices [  8  8  13  ]

Computing DFT-D3 correction:
# coordination-number C 3.298 3.321 3.333 3.331 3.310 3.286 3.319 3.555 3.327 3.310 3.298 3.321 3.299 3.298 3.321 3.574 3.264 3.298 3.318 3.333 3.327 3.299 3.299 3.327 3.333 3.318 3.298 3.263 3.556 3.321 3.298 3.299 3.320 3.298 3.310 3.327 3.575 3.322 3.286 3.310 3.331 3.333 3.321 3.298 3.005
# coordination-number N 3.173 3.175 3.173 3.174
# coordination-number Ti 6.438
# coordination-number O 2.176 1.180
# coordination-number H 1.000
# diagonal-C6 C 24.31 24.07 23.94 23.97 24.18 24.41 24.09 20.86 24.00 24.18 24.30 24.07 24.29 24.30 24.07 20.60 24.60 24.30 24.10 23.94 24.00 24.29 24.29 24.00 23.94 24.10 24.30 24.60 20.84 24.07 24.30 24.29 24.08 24.30 24.18 24.00 20.59 24.06 24.41 24.18 23.97 23.94 24.07 24.30 25.66
# diagonal-C6 N 15.60 15.60 15.60 15.60
# diagonal-C6 Ti 321.59
# diagonal-C6 O 10.38 12.62
# diagonal-C6 H 3.09
EvdW_6 =   -0.040212
EvdW_8 =   -0.031665

---------- Allocating electronic variables ----------
Initializing wave functions:  linear combination of atomic orbitals
C pseudo-atom occupations:   s ( 2 )  p ( 2 )
N pseudo-atom occupations:   s ( 2 )  p ( 3 )
Ti pseudo-atom occupations:   s ( 2 0 )  p ( 6 )  d ( 4 )
O pseudo-atom occupations:   s ( 2 )  p ( 4 )
H pseudo-atom occupations:   s ( 1 )
	FillingsUpdate:  mu: -0.160200000  nElectrons: 225.000000  magneticMoment: [ Abs: 0.00442  Tot: +0.00004 ]
LCAOMinimize: Iter:   0  G: -345.0253139614130760  |grad|_K:  5.007e-03  alpha:  1.000e+00
	FillingsUpdate:  mu: -0.160200000  nElectrons: 225.000000  magneticMoment: [ Abs: 0.00433  Tot: -0.00001 ]
LCAOMinimize: Iter:   1  G: -347.7488536952188269  |grad|_K:  1.434e-03  alpha:  1.380e-01  linmin: -1.238e-01  cgtest:  1.873e+00  t[s]:    402.44
LCAOMinimize: Encountered beta<0, resetting CG.
LCAOMinimize: 	Predicted alpha/alphaT>3.000000, increasing alphaT to 4.138607e-01.
LCAOMinimize: 	Wrong curvature in test step, increasing alphaT to 1.241582e+00.
	FillingsUpdate:  mu: -0.160200000  nElectrons: 225.000000  magneticMoment: [ Abs: 0.00439  Tot: -0.00002 ]
LCAOMinimize: Iter:   2  G: -348.5437713858556208  |grad|_K:  1.019e-03  alpha: -1.856e+00  linmin: -1.934e-01  cgtest:  4.317e-02  t[s]:    595.61
	FillingsUpdate:  mu: -0.160200000  nElectrons: 225.000000  magneticMoment: [ Abs: 0.00441  Tot: -0.00003 ]
LCAOMinimize: Iter:   3  G: -348.6023764674790186  |grad|_K:  8.001e-04  alpha:  3.552e-02  linmin: -1.764e-01  cgtest:  8.750e-01  t[s]:    751.65
LCAOMinimize: Encountered beta<0, resetting CG.
LCAOMinimize: 	Predicted alpha/alphaT>3.000000, increasing alphaT to 1.065707e-01.
	FillingsUpdate:  mu: -0.160200000  nElectrons: 225.000000  magneticMoment: [ Abs: 0.00452  Tot: -0.00022 ]
LCAOMinimize: Iter:   4  G: -348.6422605883359438  |grad|_K:  1.277e-03  alpha:  2.212e-01  linmin:  1.183e-01  cgtest: -1.682e-01  t[s]:    947.83
LCAOMinimize: 	Bad step direction: g.d > 0.
LCAOMinimize: 	Undoing step.
LCAOMinimize: 	Step failed: resetting search direction.
	FillingsUpdate:  mu: -0.160200000  nElectrons: 225.000000  magneticMoment: [ Abs: 0.00452  Tot: -0.00022 ]
LCAOMinimize: Iter:   5  G: -348.6422605883359438  |grad|_K:  1.277e-03  alpha:  0.000e+00
	FillingsUpdate:  mu: -0.160200000  nElectrons: 225.000000  magneticMoment: [ Abs: 0.00441  Tot: -0.00003 ]
LCAOMinimize: Iter:   6  G: -348.6562919932688942  |grad|_K:  3.349e-04  alpha:  1.111e-01  linmin:  6.033e-02  cgtest: -2.335e+00  t[s]:   1221.10
LCAOMinimize: 	Predicted alpha/alphaT>3.000000, increasing alphaT to 3.332122e-01.
	FillingsUpdate:  mu: -0.160200000  nElectrons: 225.000000  magneticMoment: [ Abs: 0.00444  Tot: -0.00004 ]
LCAOMinimize: Iter:   7  G: -348.6601340191092504  |grad|_K:  2.836e-04  alpha:  1.265e-01  linmin: -6.876e-03  cgtest:  8.785e-01  t[s]:   1416.94
LCAOMinimize: Encountered beta<0, resetting CG.
LCAOMinimize: 	Step increased G by 1.346411e-02, reducing alpha to 1.832141e-02.
	FillingsUpdate:  mu: -0.160200000  nElectrons: 225.000000  magneticMoment: [ Abs: 0.00444  Tot: -0.00004 ]
LCAOMinimize: Iter:   8  G: -348.6613491500609712  |grad|_K:  2.563e-04  alpha:  1.832e-02  linmin: -2.438e-01  cgtest:  9.815e-01  t[s]:   1689.49
LCAOMinimize: Encountered beta<0, resetting CG.
LCAOMinimize: 	Predicted alpha/alphaT>3.000000, increasing alphaT to 5.496422e-02.
LCAOMinimize: 	Predicted alpha/alphaT>3.000000, increasing alphaT to 1.648927e-01.
	FillingsUpdate:  mu: -0.160200000  nElectrons: 225.000000  magneticMoment: [ Abs: 0.00446  Tot: -0.00006 ]
LCAOMinimize: Iter:   9  G: -348.6643638722708261  |grad|_K:  1.744e-04  alpha:  6.316e-02  linmin: -2.357e-01  cgtest:  8.433e-01  t[s]:   1925.25
LCAOMinimize: Encountered beta<0, resetting CG.
LCAOMinimize: 	Predicted alpha/alphaT>3.000000, increasing alphaT to 1.894742e-01.
	FillingsUpdate:  mu: -0.160200000  nElectrons: 225.000000  magneticMoment: [ Abs: 0.00446  Tot: -0.00007 ]
LCAOMinimize: Iter:  10  G: -348.6650802916996668  |grad|_K:  1.507e-04  alpha:  3.013e-02  linmin: -2.288e-01  cgtest:  8.855e-01  t[s]:   2121.10
LCAOMinimize: Encountered beta<0, resetting CG.
LCAOMinimize: 	Predicted alpha/alphaT>3.000000, increasing alphaT to 9.039680e-02.
	FillingsUpdate:  mu: -0.160200000  nElectrons: 225.000000  magneticMoment: [ Abs: 0.00454  Tot: -0.00017 ]
LCAOMinimize: Iter:  11  G: -348.6658777794218622  |grad|_K:  1.177e-04  alpha:  1.057e-01  linmin:  1.648e-01  cgtest: -4.148e-01  t[s]:   2317.72
LCAOMinimize: 	Bad step direction: g.d > 0.
LCAOMinimize: 	Undoing step.
LCAOMinimize: 	Step failed: resetting search direction.
	FillingsUpdate:  mu: -0.160200000  nElectrons: 225.000000  magneticMoment: [ Abs: 0.00454  Tot: -0.00017 ]
LCAOMinimize: Iter:  12  G: -348.6658777794218622  |grad|_K:  1.177e-04  alpha:  0.000e+00
	FillingsUpdate:  mu: -0.160200000  nElectrons: 225.000000  magneticMoment: [ Abs: 0.00452  Tot: -0.00015 ]
LCAOMinimize: Iter:  13  G: -348.6662783608359746  |grad|_K:  5.002e-05  alpha:  7.067e-02  linmin:  3.279e-02  cgtest: -3.265e-01  t[s]:   2590.87
LCAOMinimize: 	Predicted alpha/alphaT>3.000000, increasing alphaT to 2.120113e-01.
	FillingsUpdate:  mu: -0.160200000  nElectrons: 225.000000  magneticMoment: [ Abs: 0.00462  Tot: -0.00024 ]
LCAOMinimize: Iter:  14  G: -348.6665318705979644  |grad|_K:  4.439e-05  alpha:  2.768e-01  linmin: -1.831e-02  cgtest:  5.405e-01  t[s]:   2786.90
	FillingsUpdate:  mu: -0.160200000  nElectrons: 225.000000  magneticMoment: [ Abs: 0.00467  Tot: -0.00030 ]
LCAOMinimize: Iter:  15  G: -348.6665847574319059  |grad|_K:  2.638e-05  alpha:  6.764e-02  linmin: -6.893e-02  cgtest:  3.482e-01  t[s]:   2942.89
LCAOMinimize: 	Wrong curvature in test step, increasing alphaT to 2.029294e-01.
	FillingsUpdate:  mu: -0.160200000  nElectrons: 225.000000  magneticMoment: [ Abs: 0.00470  Tot: -0.00033 ]
LCAOMinimize: Iter:  16  G: -348.6666319052363860  |grad|_K:  1.743e-05  alpha: -3.943e-01  linmin: -2.451e-01  cgtest:  9.302e-01  t[s]:   3095.95
LCAOMinimize: Encountered beta<0, resetting CG.
	FillingsUpdate:  mu: -0.160200000  nElectrons: 225.000000  magneticMoment: [ Abs: 0.00488  Tot: -0.00052 ]
LCAOMinimize: Iter:  17  G: -348.6667067708203831  |grad|_K:  2.536e-05  alpha:  4.324e-01  linmin:  2.156e-02  cgtest: -2.032e-01  t[s]:   3252.04
	FillingsUpdate:  mu: -0.160200000  nElectrons: 225.000000  magneticMoment: [ Abs: 0.00502  Tot: -0.00067 ]
LCAOMinimize: Iter:  18  G: -348.6667153154726861  |grad|_K:  1.906e-05  alpha:  6.321e-02  linmin: -1.513e-02  cgtest:  7.701e-01  t[s]:   3408.16
LCAOMinimize: Encountered beta<0, resetting CG.
	FillingsUpdate:  mu: -0.160200000  nElectrons: 225.000000  magneticMoment: [ Abs: 0.00508  Tot: -0.00075 ]
LCAOMinimize: Iter:  19  G: -348.6667225743768768  |grad|_K:  1.275e-05  alpha:  5.371e-02  linmin: -2.840e-01  cgtest:  9.797e-01  t[s]:   3565.17
LCAOMinimize: Encountered beta<0, resetting CG.
	FillingsUpdate:  mu: -0.160200000  nElectrons: 225.000000  magneticMoment: [ Abs: 0.00515  Tot: -0.00082 ]
LCAOMinimize: Iter:  20  G: -348.6667260887016369  |grad|_K:  8.949e-06  alpha:  5.238e-02  linmin: -2.858e-01  cgtest:  9.946e-01  t[s]:   3721.20
LCAOMinimize: Encountered beta<0, resetting CG.
	FillingsUpdate:  mu: -0.160200000  nElectrons: 225.000000  magneticMoment: [ Abs: 0.00520  Tot: -0.00088 ]
LCAOMinimize: Iter:  21  G: -348.6667270891977068  |grad|_K:  7.070e-06  alpha:  3.969e-02  linmin: -2.672e-01  cgtest:  9.958e-01  t[s]:   3877.03
LCAOMinimize: Encountered beta<0, resetting CG.
	FillingsUpdate:  mu: -0.160200000  nElectrons: 225.000000  magneticMoment: [ Abs: 0.00524  Tot: -0.00092 ]
LCAOMinimize: Iter:  22  G: -348.6667274317214833  |grad|_K:  6.129e-06  alpha:  2.715e-02  linmin: -2.519e-01  cgtest:  9.978e-01  t[s]:   4033.39
LCAOMinimize: Encountered beta<0, resetting CG.
	FillingsUpdate:  mu: -0.160200000  nElectrons: 225.000000  magneticMoment: [ Abs: 0.00526  Tot: -0.00095 ]
LCAOMinimize: Iter:  23  G: -348.6667275735002818  |grad|_K:  5.629e-06  alpha:  1.767e-02  linmin: -2.420e-01  cgtest:  9.991e-01  t[s]:   4189.81
LCAOMinimize: Encountered beta<0, resetting CG.
LCAOMinimize: Converged (|Delta G|<1.000000e-06 for 2 iters).
----- createFluidSolver() ----- (Fluid-side solver setup)
   Initializing fluid molecule 'H2O'
     Initializing site 'O'
       Electron density: proportional to exp(-r/0.36935)*erfc((r-0.51523)/0.36823) with norm 6.826
       Charge density: gaussian nuclear width 0.478731 with net site charge 0.826
       Polarizability: cuspless exponential with width 0.32 and norm 3.73
       Hard sphere radius: 2.57003 bohrs
       Positions in reference frame:
         [ +0.000000 +0.000000 +0.000000 ]
     Initializing site 'H'
       Electron density: proportional to exp(-r/0.34641)*erfc((r-0)/0.390882) with norm 0.587
       Charge density: gaussian nuclear width 0.377945 with net site charge -0.413
       Polarizability: cuspless exponential with width 0.39 and norm 3.3
       Positions in reference frame:
         [ +0.000000 -1.441945 +1.122523 ]
         [ +0.000000 +1.441945 +1.122523 ]
     Net charge: 0   dipole magnitude: 0.927204
     Initializing spherical shell mfKernel with radius 2.61727 Bohr
     deltaS corrections:
       site 'O': -7.54299
       site 'H': -6.83917
   Initializing fluid molecule 'Na+'
     Initializing site 'Na'
       Electron density: proportional to exp(-r/0.19682)*erfc((r-0.71491)/0.41314) with norm 8.1383
       Charge density: gaussian nuclear width 0.365347 with net site charge -1
       Hard sphere radius: 1.86327 bohrs
       Positions in reference frame:
         [ +0.000000 +0.000000 +0.000000 ]
     Net charge: -1   dipole magnitude: 0
     Initializing gaussian mfKernel with width: 1.55004 Bohr
     deltaS corrections:
       site 'Na': -22.3555
   Initializing fluid molecule 'F-'
     Initializing site 'F'
       Electron density: proportional to exp(-r/0.38886)*erfc((r-0)/0.438782) with norm 8
       Charge density: gaussian nuclear width 0.374796 with net site charge 1
       Hard sphere radius: 2.39995 bohrs
       Positions in reference frame:
         [ +0.000000 +0.000000 +0.000000 ]
     Net charge: 1   dipole magnitude: 0
     Initializing gaussian mfKernel with width: 1.59012 Bohr
     deltaS corrections:
       site 'F': -9.04335

Correction to mu due to finite nuclear width = -0.0110378
   Cavity determined by nc: 0.00142 and sigma: 0.707107
   Nonlocal vdW cavity from gaussian model electron density with norm = 8 and sigma = 0.993594 bohr
   Charge asymmetry in cavity with sensitivity pCavity = 36.5 e-bohr/Eh
   Electrostatic cavity expanded by eta = 1.46 bohrs
   Weighted density cavitation model constrained by Nbulk: 0.0049383 bohr^-3, Pvap: 3.14029 kPa, Rvdw: 2.61727 bohr and sigmaBulk: 4.62e-05 Eh/bohr^2 at T: 298 K.
   Weighted density dispersion model using vdW pair potentials with single solvent site with sqrtC6eff: 0.77 SI.


---- Citations for features of the code used in this run ----

   Software package:
      R. Sundararaman, K. Letchworth-Weaver, K.A. Schwarz, D. Gunceler, Y. Ozhabes and T.A. Arias, 'JDFTx: software for joint density-functional theory', SoftwareX 6, 278 (2017)

   gga-PBE exchange-correlation functional:
      J.P. Perdew, K. Burke and M. Ernzerhof, Phys. Rev. Lett. 77, 3865 (1996)

   Pseudopotentials:
      KF Garrity, JW Bennett, KM Rabe and D Vanderbilt, Comput. Mater. Sci. 81, 446 (2014)

   DFT-D3 dispersion correction:
      S. Grimme, J. Antony, S. Ehrlich and H. Krieg, J. Chem. Phys. 132, 154104 (2010)

   DFT-D2 dispersion correction:
      S. Grimme, J. Comput. Chem. 27, 1787 (2006)

   Charge-asymmetric nonlocally-determined local-electric (CANDLE) solvation model:
      R. Sundararaman and W.A. Goddard III, J. Chem. Phys. 142, 064107 (2015)

   Total energy minimization with Auxiliary Hamiltonian:
      C. Freysoldt, S. Boeck, and J. Neugebauer, Phys. Rev. B 79, 241103(R) (2009)

   Grand-canonical (fixed-potential) DFT:
      R. Sundararaman, W. A. Goddard III and T. A. Arias, J. Chem. Phys. 146, 114104 (2017)

   Linear-tetrahedron sampling for density of states:
      G. Lehmann and M. Taut, Phys. status solidi (b) 54, 469 (1972)

This list may not be complete. Please suggest additional citations or
report any other bugs at https://github.com/shankar1729/jdftx/issues

Initialization completed successfully at t[s]:   4210.73


Computing DFT-D3 correction:
# coordination-number C 3.298 3.321 3.333 3.331 3.310 3.286 3.319 3.555 3.327 3.310 3.298 3.321 3.299 3.298 3.321 3.574 3.264 3.298 3.318 3.333 3.327 3.299 3.299 3.327 3.333 3.318 3.298 3.263 3.556 3.321 3.298 3.299 3.320 3.298 3.310 3.327 3.575 3.322 3.286 3.310 3.331 3.333 3.321 3.298 3.005
# coordination-number N 3.173 3.175 3.173 3.174
# coordination-number Ti 6.438
# coordination-number O 2.176 1.180
# coordination-number H 1.000
# diagonal-C6 C 24.31 24.07 23.94 23.97 24.18 24.41 24.09 20.86 24.00 24.18 24.30 24.07 24.29 24.30 24.07 20.60 24.60 24.30 24.10 23.94 24.00 24.29 24.29 24.00 23.94 24.10 24.30 24.60 20.84 24.07 24.30 24.29 24.08 24.30 24.18 24.00 20.59 24.06 24.41 24.18 23.97 23.94 24.07 24.30 25.66
# diagonal-C6 N 15.60 15.60 15.60 15.60
# diagonal-C6 Ti 321.59
# diagonal-C6 O 10.38 12.62
# diagonal-C6 H 3.09
EvdW_6 =   -0.040212
EvdW_8 =   -0.031665
Fluid solver invoked on fresh (random / LCAO) wavefunctions
Running a vacuum solve first:

-------- Initial electronic minimization -----------
	FillingsUpdate:  mu: -0.195067279  nElectrons: 225.000000  magneticMoment: [ Abs: 0.00526  Tot: -0.00095 ]
ElecMinimize: Iter:   0  G: -348.665959665505454  |grad|_K:  1.442e-04  alpha:  1.000e+00
	FillingsUpdate:  mu: -0.135685559  nElectrons: 225.000000  magneticMoment: [ Abs: 0.00437  Tot: -0.00217 ]
	SubspaceRotationAdjust: set factor to 1
ElecMinimize: Iter:   1  G: -351.616825274279279  |grad|_K:  5.475e-05  alpha:  6.845e-01  linmin:  3.461e-04  t[s]:   4462.85
	FillingsUpdate:  mu: -0.067412289  nElectrons: 225.000000  magneticMoment: [ Abs: 0.01670  Tot: -0.01447 ]
	SubspaceRotationAdjust: set factor to 0.558
ElecMinimize: Iter:   2  G: -351.639553838469567  |grad|_K:  1.121e-04  alpha:  1.242e-01  linmin:  3.747e-03  t[s]:   4618.09
ElecMinimize: 	Bad step direction: g.d > 0.
ElecMinimize: 	Undoing step.
ElecMinimize: 	Step failed: resetting search direction.
	FillingsUpdate:  mu: -0.067412289  nElectrons: 225.000000  magneticMoment: [ Abs: 0.01670  Tot: -0.01447 ]
	SubspaceRotationAdjust: set factor to 0.337
ElecMinimize: Iter:   3  G: -351.639553838469908  |grad|_K:  8.710e-05  alpha:  0.000e+00
	FillingsUpdate:  mu: -0.107231315  nElectrons: 225.000000  magneticMoment: [ Abs: 0.01246  Tot: -0.01091 ]
	SubspaceRotationAdjust: set factor to 0.157
ElecMinimize: Iter:   4  G: -351.743179534308354  |grad|_K:  3.260e-05  alpha:  7.993e-02  linmin:  8.889e-04  t[s]:   4887.63
ElecMinimize: 	Predicted alpha/alphaT>3.000000, increasing alphaT to 2.397802e-01.
	FillingsUpdate:  mu: -0.121240282  nElectrons: 225.000000  magneticMoment: [ Abs: 0.02108  Tot: -0.02019 ]
	SubspaceRotationAdjust: set factor to 0.238
ElecMinimize: Iter:   5  G: -351.877500556776283  |grad|_K:  1.878e-05  alpha:  6.365e-01  linmin: -3.093e-06  t[s]:   5081.88
	FillingsUpdate:  mu: -0.073351947  nElectrons: 225.000000  magneticMoment: [ Abs: 0.07431  Tot: -0.07336 ]
	SubspaceRotationAdjust: set factor to 0.179
ElecMinimize: Iter:   6  G: -351.912166933967740  |grad|_K:  2.145e-05  alpha:  4.840e-01  linmin:  2.830e-04  t[s]:   5236.40
	FillingsUpdate:  mu: -0.079938461  nElectrons: 225.000000  magneticMoment: [ Abs: 0.09813  Tot: -0.09674 ]
	SubspaceRotationAdjust: set factor to 0.153
ElecMinimize: Iter:   7  G: -351.934510500512431  |grad|_K:  7.918e-06  alpha:  2.390e-01  linmin:  8.105e-05  t[s]:   5391.20
	FillingsUpdate:  mu: -0.086099021  nElectrons: 225.000000  magneticMoment: [ Abs: 0.17293  Tot: -0.16999 ]
	SubspaceRotationAdjust: set factor to 0.179
ElecMinimize: Iter:   8  G: -351.943112585774315  |grad|_K:  5.345e-06  alpha:  6.613e-01  linmin:  3.481e-06  t[s]:   5547.03
	FillingsUpdate:  mu: -0.072308119  nElectrons: 225.000000  magneticMoment: [ Abs: 0.33352  Tot: -0.32771 ]
	SubspaceRotationAdjust: set factor to 0.16
ElecMinimize: Iter:   9  G: -351.947260922979922  |grad|_K:  5.081e-06  alpha:  6.913e-01  linmin: -1.497e-05  t[s]:   5701.56
	FillingsUpdate:  mu: -0.082718896  nElectrons: 225.000000  magneticMoment: [ Abs: 0.37262  Tot: -0.36404 ]
	SubspaceRotationAdjust: set factor to 0.151
ElecMinimize: Iter:  10  G: -351.948775479827475  |grad|_K:  3.273e-06  alpha:  3.035e-01  linmin:  8.624e-05  t[s]:   5857.41
	FillingsUpdate:  mu: -0.079937216  nElectrons: 225.000000  magneticMoment: [ Abs: 0.43916  Tot: -0.42426 ]
	SubspaceRotationAdjust: set factor to 0.193
ElecMinimize: Iter:  11  G: -351.950102818508299  |grad|_K:  2.133e-06  alpha:  5.865e-01  linmin: -1.856e-04  t[s]:   6013.47
	FillingsUpdate:  mu: -0.076774051  nElectrons: 225.000000  magneticMoment: [ Abs: 0.48164  Tot: -0.46016 ]
	SubspaceRotationAdjust: set factor to 0.218
ElecMinimize: Iter:  12  G: -351.950698650495269  |grad|_K:  2.015e-06  alpha:  5.758e-01  linmin: -3.254e-05  t[s]:   6168.72
	FillingsUpdate:  mu: -0.084904199  nElectrons: 225.000000  magneticMoment: [ Abs: 0.51097  Tot: -0.48016 ]
	SubspaceRotationAdjust: set factor to 0.203
ElecMinimize: Iter:  13  G: -351.951181938438253  |grad|_K:  1.833e-06  alpha:  5.545e-01  linmin:  2.896e-06  t[s]:   6323.20
	FillingsUpdate:  mu: -0.079615564  nElectrons: 225.000000  magneticMoment: [ Abs: 0.55728  Tot: -0.51432 ]
	SubspaceRotationAdjust: set factor to 0.247
ElecMinimize: Iter:  14  G: -351.951473519628905  |grad|_K:  1.177e-06  alpha:  4.268e-01  linmin: -3.376e-05  t[s]:   6478.43
	FillingsUpdate:  mu: -0.078044412  nElectrons: 225.000000  magneticMoment: [ Abs: 0.59273  Tot: -0.53437 ]
	SubspaceRotationAdjust: set factor to 0.285
ElecMinimize: Iter:  15  G: -351.951690838545687  |grad|_K:  1.032e-06  alpha:  7.144e-01  linmin: -6.282e-05  t[s]:   6633.83
	FillingsUpdate:  mu: -0.082562696  nElectrons: 225.000000  magneticMoment: [ Abs: 0.60811  Tot: -0.53953 ]
	SubspaceRotationAdjust: set factor to 0.253
ElecMinimize: Iter:  16  G: -351.951800967108682  |grad|_K:  7.921e-07  alpha:  4.700e-01  linmin:  1.160e-07  t[s]:   6789.42
	FillingsUpdate:  mu: -0.080317943  nElectrons: 225.000000  magneticMoment: [ Abs: 0.62821  Tot: -0.54608 ]
	SubspaceRotationAdjust: set factor to 0.289
ElecMinimize: Iter:  17  G: -351.951863811093347  |grad|_K:  5.730e-07  alpha:  4.762e-01  linmin: -8.030e-05  t[s]:   6944.64
	FillingsUpdate:  mu: -0.080230975  nElectrons: 225.000000  magneticMoment: [ Abs: 0.64586  Tot: -0.54959 ]
	SubspaceRotationAdjust: set factor to 0.341
ElecMinimize: Iter:  18  G: -351.951910681746540  |grad|_K:  4.501e-07  alpha:  6.554e-01  linmin: -4.170e-05  t[s]:   7099.99
	FillingsUpdate:  mu: -0.081596668  nElectrons: 225.000000  magneticMoment: [ Abs: 0.65731  Tot: -0.55085 ]
	SubspaceRotationAdjust: set factor to 0.352
ElecMinimize: Iter:  19  G: -351.951935563870904  |grad|_K:  3.570e-07  alpha:  5.786e-01  linmin:  1.081e-05  t[s]:   7255.37
	FillingsUpdate:  mu: -0.080244513  nElectrons: 225.000000  magneticMoment: [ Abs: 0.66674  Tot: -0.55200 ]
	SubspaceRotationAdjust: set factor to 0.335
ElecMinimize: Iter:  20  G: -351.951947145393603  |grad|_K:  2.555e-07  alpha:  4.380e-01  linmin: -1.593e-05  t[s]:   7411.02
	FillingsUpdate:  mu: -0.080775977  nElectrons: 225.000000  magneticMoment: [ Abs: 0.67321  Tot: -0.55230 ]
	SubspaceRotationAdjust: set factor to 0.375
ElecMinimize: Iter:  21  G: -351.951955185073018  |grad|_K:  1.777e-07  alpha:  5.822e-01  linmin: -2.618e-07  t[s]:   7565.52
	FillingsUpdate:  mu: -0.080884050  nElectrons: 225.000000  magneticMoment: [ Abs: 0.67753  Tot: -0.55247 ]
	SubspaceRotationAdjust: set factor to 0.451
ElecMinimize: Iter:  22  G: -351.951959278079698  |grad|_K:  1.284e-07  alpha:  6.166e-01  linmin: -2.663e-07  t[s]:   7721.12
	FillingsUpdate:  mu: -0.080404149  nElectrons: 225.000000  magneticMoment: [ Abs: 0.67991  Tot: -0.55262 ]
	SubspaceRotationAdjust: set factor to 0.408
ElecMinimize: Iter:  23  G: -351.951960925531637  |grad|_K:  1.056e-07  alpha:  4.759e-01  linmin: -1.002e-06  t[s]:   7877.15
	FillingsUpdate:  mu: -0.080865197  nElectrons: 225.000000  magneticMoment: [ Abs: 0.68026  Tot: -0.55241 ]
	SubspaceRotationAdjust: set factor to 0.354
ElecMinimize: Iter:  24  G: -351.951961898618492  |grad|_K:  7.161e-08  alpha:  4.150e-01  linmin:  1.127e-06  t[s]:   8032.94
	FillingsUpdate:  mu: -0.080779617  nElectrons: 225.000000  magneticMoment: [ Abs: 0.68061  Tot: -0.55232 ]
	SubspaceRotationAdjust: set factor to 0.435
ElecMinimize: Iter:  25  G: -351.951962593226142  |grad|_K:  5.276e-08  alpha:  6.449e-01  linmin:  2.850e-07  t[s]:   8187.51
	FillingsUpdate:  mu: -0.080687710  nElectrons: 225.000000  magneticMoment: [ Abs: 0.68048  Tot: -0.55226 ]
	SubspaceRotationAdjust: set factor to 0.51
ElecMinimize: Iter:  26  G: -351.951962959199250  |grad|_K:  4.125e-08  alpha:  6.258e-01  linmin: -2.729e-07  t[s]:   8343.30
	FillingsUpdate:  mu: -0.080871645  nElectrons: 225.000000  magneticMoment: [ Abs: 0.67972  Tot: -0.55214 ]
	SubspaceRotationAdjust: set factor to 0.484
ElecMinimize: Iter:  27  G: -351.951963172308581  |grad|_K:  4.279e-08  alpha:  5.959e-01  linmin:  2.801e-06  t[s]:   8498.30
	FillingsUpdate:  mu: -0.080715300  nElectrons: 225.000000  magneticMoment: [ Abs: 0.67931  Tot: -0.55216 ]
	SubspaceRotationAdjust: set factor to 0.42
ElecMinimize: Iter:  28  G: -351.951963317982347  |grad|_K:  2.975e-08  alpha:  3.796e-01  linmin:  1.951e-07  t[s]:   8653.59
	FillingsUpdate:  mu: -0.080785197  nElectrons: 225.000000  magneticMoment: [ Abs: 0.67850  Tot: -0.55213 ]
	SubspaceRotationAdjust: set factor to 0.461
ElecMinimize: Iter:  29  G: -351.951963434762376  |grad|_K:  1.973e-08  alpha:  6.289e-01  linmin:  2.134e-06  t[s]:   8808.06
	FillingsUpdate:  mu: -0.080780958  nElectrons: 225.000000  magneticMoment: [ Abs: 0.67802  Tot: -0.55217 ]
	SubspaceRotationAdjust: set factor to 0.508
ElecMinimize: Iter:  30  G: -351.951963494000609  |grad|_K:  1.383e-08  alpha:  7.269e-01  linmin: -1.862e-07  t[s]:   8963.29
	FillingsUpdate:  mu: -0.080761672  nElectrons: 225.000000  magneticMoment: [ Abs: 0.67781  Tot: -0.55221 ]
	SubspaceRotationAdjust: set factor to 0.551
ElecMinimize: Iter:  31  G: -351.951963520856737  |grad|_K:  1.120e-08  alpha:  6.682e-01  linmin: -1.136e-08  t[s]:   9117.55
ElecMinimize: Converged (|Delta G|<1.000000e-07 for 2 iters).
Setting wave functions to eigenvectors of Hamiltonian
Converging empty states (this may take a while): |deigs|: 8.387e-03
Vacuum energy after initial minimize, F = -351.951963520856737

Shifting auxilliary hamiltonian by -0.079438 to set nElectrons=225.000000

-------- Electronic minimization -----------
	Linear fluid (dielectric constant: 78.4, screening length: 8.12261 Bohr) occupying 0.717526 of unit cell:	Completed after 23 iterations at t[s]:   9938.70
	FillingsUpdate:  mu: -0.160200000  nElectrons: 225.000000  magneticMoment: [ Abs: 0.67758  Tot: -0.55219 ]
ElecMinimize: Iter:   0  G: -351.956107850492401  |grad|_K:  1.069e-05  alpha:  1.000e+00
	Linear fluid (dielectric constant: 78.4, screening length: 8.12261 Bohr) occupying 0.717956 of unit cell:	Completed after 21 iterations at t[s]:  10093.39
	Linear fluid (dielectric constant: 78.4, screening length: 8.12261 Bohr) occupying 0.717229 of unit cell:	Completed after 19 iterations at t[s]:  10159.18
ElecMinimize: 	Step increased G by 1.724190e-02, reducing alpha to 2.480362e-02.
	Linear fluid (dielectric constant: 78.4, screening length: 8.12261 Bohr) occupying 0.717464 of unit cell:	Completed after 19 iterations at t[s]:  10287.84
	FillingsUpdate:  mu: -0.160200000  nElectrons: 224.945971  magneticMoment: [ Abs: 0.63138  Tot: -0.49923 ]
	SubspaceRotationAdjust: set factor to 0.395
ElecMinimize: Iter:   1  G: -351.956884177925872  |grad|_K:  5.841e-06  alpha:  2.480e-02  linmin: -6.835e-03  t[s]:  10354.75
	Linear fluid (dielectric constant: 78.4, screening length: 8.12261 Bohr) occupying 0.717487 of unit cell:	Completed after 12 iterations at t[s]:  10422.87
ElecMinimize: 	Predicted alpha/alphaT>3.000000, increasing alphaT to 7.441086e-02.
	Linear fluid (dielectric constant: 78.4, screening length: 8.12261 Bohr) occupying 0.717535 of unit cell:	Completed after 13 iterations at t[s]:  10483.01
	Linear fluid (dielectric constant: 78.4, screening length: 8.12261 Bohr) occupying 0.717586 of unit cell:	Completed after 13 iterations at t[s]:  10544.13
	FillingsUpdate:  mu: -0.160200000  nElectrons: 224.838711  magneticMoment: [ Abs: 0.55524  Tot: -0.39687 ]
	SubspaceRotationAdjust: set factor to 0.221
ElecMinimize: Iter:   2  G: -351.958097328658368  |grad|_K:  1.168e-05  alpha:  1.251e-01  linmin: -4.839e-04  t[s]:  10611.86
	Linear fluid (dielectric constant: 78.4, screening length: 8.12261 Bohr) occupying 0.718683 of unit cell:	Completed after 17 iterations at t[s]:  10685.08
	Linear fluid (dielectric constant: 78.4, screening length: 8.12261 Bohr) occupying 0.718834 of unit cell:	Completed after 12 iterations at t[s]:  10745.37
	FillingsUpdate:  mu: -0.160200000  nElectrons: 224.455995  magneticMoment: [ Abs: 0.53631  Tot: -0.42975 ]
	SubspaceRotationAdjust: set factor to 0.159
ElecMinimize: Iter:   3  G: -351.962319680062762  |grad|_K:  8.308e-06  alpha:  1.413e-01  linmin:  9.020e-04  t[s]:  10813.29
	Linear fluid (dielectric constant: 78.4, screening length: 8.12261 Bohr) occupying 0.720026 of unit cell:	Completed after 18 iterations at t[s]:  10888.43
	Linear fluid (dielectric constant: 78.4, screening length: 8.12261 Bohr) occupying 0.719175 of unit cell:	Completed after 17 iterations at t[s]:  10953.26
	FillingsUpdate:  mu: -0.160200000  nElectrons: 224.457489  magneticMoment: [ Abs: 0.56102  Tot: -0.44822 ]
	SubspaceRotationAdjust: set factor to 0.253
ElecMinimize: Iter:   4  G: -351.962776839073229  |grad|_K:  5.360e-06  alpha:  4.330e-02  linmin: -9.271e-05  t[s]:  11021.15
	Linear fluid (dielectric constant: 78.4, screening length: 8.12261 Bohr) occupying 0.719362 of unit cell:	Completed after 13 iterations at t[s]:  11089.87
	Linear fluid (dielectric constant: 78.4, screening length: 8.12261 Bohr) occupying 0.719567 of unit cell:	Completed after 14 iterations at t[s]:  11149.44
	FillingsUpdate:  mu: -0.160200000  nElectrons: 224.482553  magneticMoment: [ Abs: 0.59638  Tot: -0.47866 ]
	SubspaceRotationAdjust: set factor to 0.235
ElecMinimize: Iter:   5  G: -351.963325253846449  |grad|_K:  6.803e-06  alpha:  8.933e-02  linmin:  1.005e-04  t[s]:  11215.88
	Linear fluid (dielectric constant: 78.4, screening length: 8.12261 Bohr) occupying 0.720069 of unit cell:	Completed after 14 iterations at t[s]:  11285.94
	Linear fluid (dielectric constant: 78.4, screening length: 8.12261 Bohr) occupying 0.720187 of unit cell:	Completed after 8 iterations at t[s]:  11343.00
	FillingsUpdate:  mu: -0.160200000  nElectrons: 224.471943  magneticMoment: [ Abs: 0.60648  Tot: -0.47373 ]
	SubspaceRotationAdjust: set factor to 0.137
ElecMinimize: Iter:   6  G: -351.964356728682560  |grad|_K:  7.575e-06  alpha:  1.101e-01  linmin:  7.613e-05  t[s]:  11410.55
	Linear fluid (dielectric constant: 78.4, screening length: 8.12261 Bohr) occupying 0.720638 of unit cell:	Completed after 15 iterations at t[s]:  11481.56
	Linear fluid (dielectric constant: 78.4, screening length: 8.12261 Bohr) occupying 0.720371 of unit cell:	Completed after 13 iterations at t[s]:  11542.63
	FillingsUpdate:  mu: -0.160200000  nElectrons: 224.425925  magneticMoment: [ Abs: 0.57607  Tot: -0.43161 ]
	SubspaceRotationAdjust: set factor to 0.151
ElecMinimize: Iter:   7  G: -351.964889164060480  |grad|_K:  3.218e-06  alpha:  4.477e-02  linmin:  7.630e-08  t[s]:  11609.69
	Linear fluid (dielectric constant: 78.4, screening length: 8.12261 Bohr) occupying 0.720384 of unit cell:	Completed after 10 iterations at t[s]:  11676.90
	Linear fluid (dielectric constant: 78.4, screening length: 8.12261 Bohr) occupying 0.720394 of unit cell:	Completed after 10 iterations at t[s]:  11734.57
	FillingsUpdate:  mu: -0.160200000  nElectrons: 224.397582  magneticMoment: [ Abs: 0.55249  Tot: -0.40434 ]
	SubspaceRotationAdjust: set factor to 0.147
ElecMinimize: Iter:   8  G: -351.965064884689411  |grad|_K:  2.730e-06  alpha:  8.017e-02  linmin: -1.047e-04  t[s]:  11801.52
	Linear fluid (dielectric constant: 78.4, screening length: 8.12261 Bohr) occupying 0.720445 of unit cell:	Completed after 8 iterations at t[s]:  11866.25
	Linear fluid (dielectric constant: 78.4, screening length: 8.12261 Bohr) occupying 0.720509 of unit cell:	Completed after 9 iterations at t[s]:  11923.13
	FillingsUpdate:  mu: -0.160200000  nElectrons: 224.373160  magneticMoment: [ Abs: 0.52806  Tot: -0.37965 ]
	SubspaceRotationAdjust: set factor to 0.0978
ElecMinimize: Iter:   9  G: -351.965353990821598  |grad|_K:  3.811e-06  alpha:  1.811e-01  linmin: -9.079e-05  t[s]:  11990.40
	Linear fluid (dielectric constant: 78.4, screening length: 8.12261 Bohr) occupying 0.720935 of unit cell:	Completed after 13 iterations at t[s]:  12060.00
	Linear fluid (dielectric constant: 78.4, screening length: 8.12261 Bohr) occupying 0.720765 of unit cell:	Completed after 11 iterations at t[s]:  12119.03
	FillingsUpdate:  mu: -0.160200000  nElectrons: 224.384753  magneticMoment: [ Abs: 0.53255  Tot: -0.38980 ]
	SubspaceRotationAdjust: set factor to 0.0752
ElecMinimize: Iter:  10  G: -351.965688052470227  |grad|_K:  2.271e-06  alpha:  1.083e-01  linmin: -2.281e-07  t[s]:  12187.18
	Linear fluid (dielectric constant: 78.4, screening length: 8.12261 Bohr) occupying 0.720909 of unit cell:	Completed after 13 iterations at t[s]:  12256.76
	Linear fluid (dielectric constant: 78.4, screening length: 8.12261 Bohr) occupying 0.720906 of unit cell:	Completed after 2 iterations at t[s]:  12307.31
	FillingsUpdate:  mu: -0.160200000  nElectrons: 224.406524  magneticMoment: [ Abs: 0.54846  Tot: -0.41056 ]
	SubspaceRotationAdjust: set factor to 0.0913
ElecMinimize: Iter:  11  G: -351.965803104179827  |grad|_K:  1.590e-06  alpha:  1.062e-01  linmin:  5.804e-05  t[s]:  12374.44
	Linear fluid (dielectric constant: 78.4, screening length: 8.12261 Bohr) occupying 0.720973 of unit cell:	Completed after 10 iterations at t[s]:  12441.14
	Linear fluid (dielectric constant: 78.4, screening length: 8.12261 Bohr) occupying 0.721046 of unit cell:	Completed after 10 iterations at t[s]:  12498.94
	FillingsUpdate:  mu: -0.160200000  nElectrons: 224.432376  magneticMoment: [ Abs: 0.56587  Tot: -0.43485 ]
	SubspaceRotationAdjust: set factor to 0.0842
ElecMinimize: Iter:  12  G: -351.965918667930225  |grad|_K:  2.097e-06  alpha:  2.207e-01  linmin:  7.068e-05  t[s]:  12565.68
	Linear fluid (dielectric constant: 78.4, screening length: 8.12261 Bohr) occupying 0.721178 of unit cell:	Completed after 10 iterations at t[s]:  12632.00
	Linear fluid (dielectric constant: 78.4, screening length: 8.12261 Bohr) occupying 0.721159 of unit cell:	Completed after 3 iterations at t[s]:  12684.74
	FillingsUpdate:  mu: -0.160200000  nElectrons: 224.449990  magneticMoment: [ Abs: 0.57167  Tot: -0.45005 ]
	SubspaceRotationAdjust: set factor to 0.0619
	SubspaceRotationAdjust: resetting CG because factor has changed by 0.112192
	Linear fluid (dielectric constant: 78.4, screening length: 8.12261 Bohr) occupying 0.721159 of unit cell:	Completed after 0 iterations at t[s]:  12780.75
ElecMinimize: 	State modified externally: resetting search direction.
ElecMinimize: Iter:  13  G: -351.966089587521083  |grad|_K:  1.655e-06  alpha:  1.875e-01
	Linear fluid (dielectric constant: 78.4, screening length: 8.12261 Bohr) occupying 0.721074 of unit cell:	Completed after 12 iterations at t[s]:  12915.00
	Linear fluid (dielectric constant: 78.4, screening length: 8.12261 Bohr) occupying 0.721043 of unit cell:	Completed after 8 iterations at t[s]:  12971.26
	FillingsUpdate:  mu: -0.160200000  nElectrons: 224.430042  magneticMoment: [ Abs: 0.55215  Tot: -0.42979 ]
	SubspaceRotationAdjust: set factor to 0.0408
ElecMinimize: Iter:  14  G: -351.966238709831714  |grad|_K:  9.120e-07  alpha:  2.577e-01  linmin: -9.336e-04  t[s]:  13038.74
	Linear fluid (dielectric constant: 78.4, screening length: 8.12261 Bohr) occupying 0.720998 of unit cell:	Completed after 3 iterations at t[s]:  13100.05
	Linear fluid (dielectric constant: 78.4, screening length: 8.12261 Bohr) occupying 0.720933 of unit cell:	Completed after 4 iterations at t[s]:  13152.16
	FillingsUpdate:  mu: -0.160200000  nElectrons: 224.437004  magneticMoment: [ Abs: 0.55372  Tot: -0.43552 ]
	SubspaceRotationAdjust: set factor to 0.0545
ElecMinimize: Iter:  15  G: -351.966350497243184  |grad|_K:  7.380e-07  alpha:  6.286e-01  linmin: -4.288e-05  t[s]:  13218.86
	Linear fluid (dielectric constant: 78.4, screening length: 8.12261 Bohr) occupying 0.720821 of unit cell:	Completed after 7 iterations at t[s]:  13282.30
	Linear fluid (dielectric constant: 78.4, screening length: 8.12261 Bohr) occupying 0.720787 of unit cell:	Completed after 3 iterations at t[s]:  13333.81
	FillingsUpdate:  mu: -0.160200000  nElectrons: 224.447470  magneticMoment: [ Abs: 0.55638  Tot: -0.44396 ]
	SubspaceRotationAdjust: set factor to 0.068
ElecMinimize: Iter:  16  G: -351.966444684128078  |grad|_K:  6.794e-07  alpha:  8.181e-01  linmin: -5.672e-05  t[s]:  13401.96
	Linear fluid (dielectric constant: 78.4, screening length: 8.12261 Bohr) occupying 0.720662 of unit cell:	Completed after 8 iterations at t[s]:  13467.29
	Linear fluid (dielectric constant: 78.4, screening length: 8.12261 Bohr) occupying 0.720637 of unit cell:	Completed after 3 iterations at t[s]:  13518.93
	FillingsUpdate:  mu: -0.160200000  nElectrons: 224.469442  magneticMoment: [ Abs: 0.56504  Tot: -0.46122 ]
	SubspaceRotationAdjust: set factor to 0.078
ElecMinimize: Iter:  17  G: -351.966540488895248  |grad|_K:  9.158e-07  alpha:  9.808e-01  linmin: -9.064e-06  t[s]:  13585.78
	Linear fluid (dielectric constant: 78.4, screening length: 8.12261 Bohr) occupying 0.720363 of unit cell:	Completed after 13 iterations at t[s]:  13655.26
	Linear fluid (dielectric constant: 78.4, screening length: 8.12261 Bohr) occupying 0.720362 of unit cell:	Completed after 0 iterations at t[s]:  13703.86
	FillingsUpdate:  mu: -0.160200000  nElectrons: 224.511721  magneticMoment: [ Abs: 0.56808  Tot: -0.47597 ]
	SubspaceRotationAdjust: set factor to 0.0781
ElecMinimize: Iter:  18  G: -351.966714601798458  |grad|_K:  7.503e-07  alpha:  9.857e-01  linmin:  1.978e-04  t[s]:  13771.21
	Linear fluid (dielectric constant: 78.4, screening length: 8.12261 Bohr) occupying 0.720410 of unit cell:	Completed after 13 iterations at t[s]:  13839.68
	Linear fluid (dielectric constant: 78.4, screening length: 8.12261 Bohr) occupying 0.720377 of unit cell:	Completed after 13 iterations at t[s]:  13900.13
	FillingsUpdate:  mu: -0.160200000  nElectrons: 224.537531  magneticMoment: [ Abs: 0.57545  Tot: -0.48502 ]
	SubspaceRotationAdjust: set factor to 0.0597
ElecMinimize: Iter:  19  G: -351.966760122926758  |grad|_K:  6.121e-07  alpha:  3.710e-01  linmin: -3.196e-04  t[s]:  13967.01
	Linear fluid (dielectric constant: 78.4, screening length: 8.12261 Bohr) occupying 0.720401 of unit cell:	Completed after 8 iterations at t[s]:  14031.97
	Linear fluid (dielectric constant: 78.4, screening length: 8.12261 Bohr) occupying 0.720401 of unit cell:	Completed after 0 iterations at t[s]:  14080.02
	FillingsUpdate:  mu: -0.160200000  nElectrons: 224.547076  magneticMoment: [ Abs: 0.57015  Tot: -0.47980 ]
	SubspaceRotationAdjust: set factor to 0.0562
ElecMinimize: Iter:  20  G: -351.966791414833892  |grad|_K:  3.554e-07  alpha:  3.746e-01  linmin:  4.132e-06  t[s]:  14149.83
	Linear fluid (dielectric constant: 78.4, screening length: 8.12261 Bohr) occupying 0.720439 of unit cell:	Completed after 6 iterations at t[s]:  14213.10
	Linear fluid (dielectric constant: 78.4, screening length: 8.12261 Bohr) occupying 0.720457 of unit cell:	Completed after 3 iterations at t[s]:  14265.42
	FillingsUpdate:  mu: -0.160200000  nElectrons: 224.552377  magneticMoment: [ Abs: 0.56784  Tot: -0.47757 ]
	SubspaceRotationAdjust: set factor to 0.0641
ElecMinimize: Iter:  21  G: -351.966805840431846  |grad|_K:  2.145e-07  alpha:  5.416e-01  linmin: -1.298e-04  t[s]:  14335.62
	Linear fluid (dielectric constant: 78.4, screening length: 8.12261 Bohr) occupying 0.720491 of unit cell:	Completed after 3 iterations at t[s]:  14395.87
	Linear fluid (dielectric constant: 78.4, screening length: 8.12261 Bohr) occupying 0.720493 of unit cell:	Completed after 0 iterations at t[s]:  14444.30
	FillingsUpdate:  mu: -0.160200000  nElectrons: 224.553285  magneticMoment: [ Abs: 0.56670  Tot: -0.47675 ]
	SubspaceRotationAdjust: set factor to 0.0773
ElecMinimize: Iter:  22  G: -351.966811495812522  |grad|_K:  1.803e-07  alpha:  5.781e-01  linmin: -1.979e-04  t[s]:  14511.53
	Linear fluid (dielectric constant: 78.4, screening length: 8.12261 Bohr) occupying 0.720514 of unit cell:	Completed after 3 iterations at t[s]:  14570.46
	Linear fluid (dielectric constant: 78.4, screening length: 8.12261 Bohr) occupying 0.720512 of unit cell:	Completed after 0 iterations at t[s]:  14619.00
	FillingsUpdate:  mu: -0.160200000  nElectrons: 224.550688  magneticMoment: [ Abs: 0.56410  Tot: -0.47453 ]
	SubspaceRotationAdjust: set factor to 0.0792
ElecMinimize: Iter:  23  G: -351.966815113535574  |grad|_K:  1.778e-07  alpha:  5.224e-01  linmin:  2.726e-04  t[s]:  14685.64
	Linear fluid (dielectric constant: 78.4, screening length: 8.12261 Bohr) occupying 0.720537 of unit cell:	Completed after 3 iterations at t[s]:  14742.39
	Linear fluid (dielectric constant: 78.4, screening length: 8.12261 Bohr) occupying 0.720532 of unit cell:	Completed after 1 iterations at t[s]:  14785.48
	FillingsUpdate:  mu: -0.160200000  nElectrons: 224.550504  magneticMoment: [ Abs: 0.56477  Tot: -0.47574 ]
	SubspaceRotationAdjust: set factor to 0.0801
ElecMinimize: Iter:  24  G: -351.966817754697047  |grad|_K:  1.531e-07  alpha:  4.136e-01  linmin:  6.459e-06  t[s]:  14843.42
	Linear fluid (dielectric constant: 78.4, screening length: 8.12261 Bohr) occupying 0.720534 of unit cell:	Completed after 3 iterations at t[s]:  14895.72
	Linear fluid (dielectric constant: 78.4, screening length: 8.12261 Bohr) occupying 0.720534 of unit cell:	Completed after 2 iterations at t[s]:  14939.10
	FillingsUpdate:  mu: -0.160200000  nElectrons: 224.545994  magneticMoment: [ Abs: 0.56284  Tot: -0.47436 ]
	SubspaceRotationAdjust: set factor to 0.0952
ElecMinimize: Iter:  25  G: -351.966820507013267  |grad|_K:  1.366e-07  alpha:  5.595e-01  linmin: -2.256e-05  t[s]:  14997.37
	Linear fluid (dielectric constant: 78.4, screening length: 8.12261 Bohr) occupying 0.720529 of unit cell:	Completed after 3 iterations at t[s]:  15049.36
	Linear fluid (dielectric constant: 78.4, screening length: 8.12261 Bohr) occupying 0.720528 of unit cell:	Completed after 0 iterations at t[s]:  15091.80
	FillingsUpdate:  mu: -0.160200000  nElectrons: 224.541849  magneticMoment: [ Abs: 0.56250  Tot: -0.47465 ]
	SubspaceRotationAdjust: set factor to 0.109
ElecMinimize: Iter:  26  G: -351.966823156608143  |grad|_K:  1.305e-07  alpha:  6.659e-01  linmin: -2.308e-04  t[s]:  15149.22
	Linear fluid (dielectric constant: 78.4, screening length: 8.12261 Bohr) occupying 0.720505 of unit cell:	Completed after 6 iterations at t[s]:  15203.81
	Linear fluid (dielectric constant: 78.4, screening length: 8.12261 Bohr) occupying 0.720513 of unit cell:	Completed after 3 iterations at t[s]:  15248.38
	FillingsUpdate:  mu: -0.160200000  nElectrons: 224.537274  magneticMoment: [ Abs: 0.56108  Tot: -0.47358 ]
	SubspaceRotationAdjust: set factor to 0.1
ElecMinimize: Iter:  27  G: -351.966824683840059  |grad|_K:  1.234e-07  alpha:  4.389e-01  linmin: -8.591e-05  t[s]:  15306.14
	Linear fluid (dielectric constant: 78.4, screening length: 8.12261 Bohr) occupying 0.720507 of unit cell:	Completed after 3 iterations at t[s]:  15358.43
	Linear fluid (dielectric constant: 78.4, screening length: 8.12261 Bohr) occupying 0.720508 of unit cell:	Completed after 1 iterations at t[s]:  15401.45
	FillingsUpdate:  mu: -0.160200000  nElectrons: 224.536387  magneticMoment: [ Abs: 0.56228  Tot: -0.47513 ]
	SubspaceRotationAdjust: set factor to 0.0727
ElecMinimize: Iter:  28  G: -351.966825772919435  |grad|_K:  1.094e-07  alpha:  3.332e-01  linmin:  1.077e-04  t[s]:  15461.16
	Linear fluid (dielectric constant: 78.4, screening length: 8.12261 Bohr) occupying 0.720499 of unit cell:	Completed after 3 iterations at t[s]:  15513.39
	Linear fluid (dielectric constant: 78.4, screening length: 8.12261 Bohr) occupying 0.720497 of unit cell:	Completed after 0 iterations at t[s]:  15555.16
	FillingsUpdate:  mu: -0.160200000  nElectrons: 224.533701  magneticMoment: [ Abs: 0.56163  Tot: -0.47477 ]
	SubspaceRotationAdjust: set factor to 0.0705
ElecMinimize: Iter:  29  G: -351.966826737728923  |grad|_K:  8.020e-08  alpha:  3.914e-01  linmin: -2.147e-04  t[s]:  15615.39
	Linear fluid (dielectric constant: 78.4, screening length: 8.12261 Bohr) occupying 0.720493 of unit cell:	Completed after 2 iterations at t[s]:  15666.33
	Linear fluid (dielectric constant: 78.4, screening length: 8.12261 Bohr) occupying 0.720492 of unit cell:	Completed after 0 iterations at t[s]:  15707.84
	FillingsUpdate:  mu: -0.160200000  nElectrons: 224.532127  magneticMoment: [ Abs: 0.56138  Tot: -0.47478 ]
	SubspaceRotationAdjust: set factor to 0.0797
ElecMinimize: Iter:  30  G: -351.966827540542909  |grad|_K:  6.503e-08  alpha:  5.347e-01  linmin: -4.353e-04  t[s]:  15766.04
	Linear fluid (dielectric constant: 78.4, screening length: 8.12261 Bohr) occupying 0.720495 of unit cell:	Completed after 2 iterations at t[s]:  15817.59
	Linear fluid (dielectric constant: 78.4, screening length: 8.12261 Bohr) occupying 0.720494 of unit cell:	Completed after 0 iterations at t[s]:  15859.92
	FillingsUpdate:  mu: -0.160200000  nElectrons: 224.532284  magneticMoment: [ Abs: 0.56195  Tot: -0.47552 ]
	SubspaceRotationAdjust: set factor to 0.0705
ElecMinimize: Iter:  31  G: -351.966827924048630  |grad|_K:  7.712e-08  alpha:  3.852e-01  linmin:  3.632e-04  t[s]:  15918.24
	Linear fluid (dielectric constant: 78.4, screening length: 8.12261 Bohr) occupying 0.720496 of unit cell:	Completed after 2 iterations at t[s]:  15969.60
	Linear fluid (dielectric constant: 78.4, screening length: 8.12261 Bohr) occupying 0.720495 of unit cell:	Completed after 0 iterations at t[s]:  16010.86
	FillingsUpdate:  mu: -0.160200000  nElectrons: 224.531638  magneticMoment: [ Abs: 0.56165  Tot: -0.47538 ]
	SubspaceRotationAdjust: set factor to 0.0693
ElecMinimize: Iter:  32  G: -351.966828216113583  |grad|_K:  5.230e-08  alpha:  2.805e-01  linmin: -1.872e-05  t[s]:  16069.22
	Linear fluid (dielectric constant: 78.4, screening length: 8.12261 Bohr) occupying 0.720498 of unit cell:	Completed after 0 iterations at t[s]:  16118.03
	Linear fluid (dielectric constant: 78.4, screening length: 8.12261 Bohr) occupying 0.720501 of unit cell:	Completed after 1 iterations at t[s]:  16161.19
	FillingsUpdate:  mu: -0.160200000  nElectrons: 224.531712  magneticMoment: [ Abs: 0.56175  Tot: -0.47567 ]
	SubspaceRotationAdjust: set factor to 0.0851
ElecMinimize: Iter:  33  G: -351.966828489751776  |grad|_K:  4.248e-08  alpha:  5.440e-01  linmin:  3.486e-04  t[s]:  16218.86
	Linear fluid (dielectric constant: 78.4, screening length: 8.12261 Bohr) occupying 0.720507 of unit cell:	Completed after 2 iterations at t[s]:  16270.29
	Linear fluid (dielectric constant: 78.4, screening length: 8.12261 Bohr) occupying 0.720506 of unit cell:	Completed after 0 iterations at t[s]:  16312.11
	FillingsUpdate:  mu: -0.160200000  nElectrons: 224.532071  magneticMoment: [ Abs: 0.56189  Tot: -0.47595 ]
	SubspaceRotationAdjust: set factor to 0.0967
ElecMinimize: Iter:  34  G: -351.966828660386795  |grad|_K:  4.307e-08  alpha:  5.060e-01  linmin: -2.986e-04  t[s]:  16370.65
	Linear fluid (dielectric constant: 78.4, screening length: 8.12261 Bohr) occupying 0.720510 of unit cell:	Completed after 1 iterations at t[s]:  16421.61
	Linear fluid (dielectric constant: 78.4, screening length: 8.12261 Bohr) occupying 0.720509 of unit cell:	Completed after 0 iterations at t[s]:  16463.50
	FillingsUpdate:  mu: -0.160200000  nElectrons: 224.531895  magneticMoment: [ Abs: 0.56134  Tot: -0.47552 ]
	SubspaceRotationAdjust: set factor to 0.105
ElecMinimize: Iter:  35  G: -351.966828857746123  |grad|_K:  3.784e-08  alpha:  4.646e-01  linmin:  5.421e-05  t[s]:  16521.67
	Linear fluid (dielectric constant: 78.4, screening length: 8.12261 Bohr) occupying 0.720512 of unit cell:	Completed after 0 iterations at t[s]:  16571.46
	Linear fluid (dielectric constant: 78.4, screening length: 8.12261 Bohr) occupying 0.720513 of unit cell:	Completed after 1 iterations at t[s]:  16615.25
	FillingsUpdate:  mu: -0.160200000  nElectrons: 224.532555  magneticMoment: [ Abs: 0.56119  Tot: -0.47556 ]
	SubspaceRotationAdjust: set factor to 0.116
ElecMinimize: Iter:  36  G: -351.966829003987073  |grad|_K:  3.975e-08  alpha:  6.484e-01  linmin:  4.718e-04  t[s]:  16673.72
	Linear fluid (dielectric constant: 78.4, screening length: 8.12261 Bohr) occupying 0.720515 of unit cell:	Completed after 2 iterations at t[s]:  16724.95
	Linear fluid (dielectric constant: 78.4, screening length: 8.12261 Bohr) occupying 0.720514 of unit cell:	Completed after 0 iterations at t[s]:  16765.37
	FillingsUpdate:  mu: -0.160200000  nElectrons: 224.532974  magneticMoment: [ Abs: 0.56084  Tot: -0.47536 ]
	SubspaceRotationAdjust: set factor to 0.119
ElecMinimize: Iter:  37  G: -351.966829115359587  |grad|_K:  3.853e-08  alpha:  4.270e-01  linmin:  1.184e-04  t[s]:  16822.78
	Linear fluid (dielectric constant: 78.4, screening length: 8.12261 Bohr) occupying 0.720515 of unit cell:	Completed after 1 iterations at t[s]:  16873.65
	Linear fluid (dielectric constant: 78.4, screening length: 8.12261 Bohr) occupying 0.720515 of unit cell:	Completed after 0 iterations at t[s]:  16915.32
	FillingsUpdate:  mu: -0.160200000  nElectrons: 224.533772  magneticMoment: [ Abs: 0.56093  Tot: -0.47559 ]
	SubspaceRotationAdjust: set factor to 0.104
ElecMinimize: Iter:  38  G: -351.966829214158395  |grad|_K:  3.462e-08  alpha:  3.448e-01  linmin: -3.598e-05  t[s]:  16973.24
	Linear fluid (dielectric constant: 78.4, screening length: 8.12261 Bohr) occupying 0.720512 of unit cell:	Completed after 1 iterations at t[s]:  17023.94
	Linear fluid (dielectric constant: 78.4, screening length: 8.12261 Bohr) occupying 0.720512 of unit cell:	Completed after 0 iterations at t[s]:  17065.44
	FillingsUpdate:  mu: -0.160200000  nElectrons: 224.533857  magneticMoment: [ Abs: 0.56042  Tot: -0.47518 ]
	SubspaceRotationAdjust: set factor to 0.127
ElecMinimize: Iter:  39  G: -351.966829303703776  |grad|_K:  3.015e-08  alpha:  3.494e-01  linmin: -4.360e-04  t[s]:  17123.85
ElecMinimize: Converged (|Delta G|<1.000000e-07 for 2 iters).
Setting wave functions to eigenvectors of Hamiltonian
Converging empty states (this may take a while): |deigs|: 8.199e-04
Single-point solvation energy estimate, DeltaG = -0.014865782847039

Computing DFT-D3 correction:
# coordination-number C 3.298 3.321 3.333 3.331 3.310 3.286 3.319 3.555 3.327 3.310 3.298 3.321 3.299 3.298 3.321 3.574 3.264 3.298 3.318 3.333 3.327 3.299 3.299 3.327 3.333 3.318 3.298 3.263 3.556 3.321 3.298 3.299 3.320 3.298 3.310 3.327 3.575 3.322 3.286 3.310 3.331 3.333 3.321 3.298 3.005
# coordination-number N 3.173 3.175 3.173 3.174
# coordination-number Ti 6.438
# coordination-number O 2.176 1.180
# coordination-number H 1.000
# diagonal-C6 C 24.31 24.07 23.94 23.97 24.18 24.41 24.09 20.86 24.00 24.18 24.30 24.07 24.29 24.30 24.07 20.60 24.60 24.30 24.10 23.94 24.00 24.29 24.29 24.00 23.94 24.10 24.30 24.60 20.84 24.07 24.30 24.29 24.08 24.30 24.18 24.00 20.59 24.06 24.41 24.18 23.97 23.94 24.07 24.30 25.66
# diagonal-C6 N 15.60 15.60 15.60 15.60
# diagonal-C6 Ti 321.59
# diagonal-C6 O 10.38 12.62
# diagonal-C6 H 3.09
EvdW_6 =   -0.040212
EvdW_8 =   -0.031665

# Ionic positions in cartesian coordinates:
ion C   0.003071000000000   0.029131000000000  43.251468000000010 1
ion C  21.041977000000003   3.983563000000001  43.207563000000007 1
ion C  18.703417999999999   7.987162000000001  43.072647000000011 1
ion C  -7.040472000000002  11.993798000000002  43.070960000000007 1
ion C  -9.371116000000002  16.004785000000002  43.184507000000011 1
ion C   4.686244000000000   0.141957000000000   0.035470000000000 1
ion C   2.288414000000000   4.161251000000001   0.144217000000000 1
ion C  -0.117035000000000   7.969659000000002   0.055930000000000 1
ion C  -2.427321000000003  11.976053000000004  43.162057000000004 1
ion C  -4.716639000000000  16.007939000000004  43.187579000000007 1
ion C   9.370582000000002   0.034068000000000  43.248916000000008 1
ion C   7.079129000000000   4.160560000000001   0.126654000000000 1
ion C  -0.019893000000000  15.902554000000002   0.020028000000000 1
ion C   2.344640999999999  19.866570000000003  43.246840000000006 1
ion C  11.761616000000004   3.975839000000001  43.198522000000004 1
ion C   9.478028999999999   7.976308000000001   0.034692000000000 1
ion C   4.674338000000001  15.761275000000001   0.125270000000000 1
ion C   6.998015999999998  19.870761000000005  43.246018000000007 1
ion C  16.401743000000003   3.958633000000000  43.138829000000008 1
ion C  14.094618999999998   7.983364000000001  43.070138000000007 1
ion C  11.783163000000004  11.987602000000003  43.152801000000004 1
ion C   9.369059000000000  15.912177000000005   0.007656000000000 1
ion C  -0.009389000000000   2.718197000000000   0.022580000000000 1
ion C  -2.422987000000001   6.640598000000002  43.163442000000011 1
ion C  -4.735016000000002  10.643658000000004  43.072344000000008 1
ion C  -7.042902000000001  14.668728000000003  43.138785000000006 1
ion C  -9.372459000000001  18.699347000000003  43.248224000000008 1
ion C   4.684233000000001   2.866784000000000   0.130028000000000 1
ion C  -0.119364000000001  10.650793000000002   0.054243000000000 1
ion C  -2.402799000000001  14.651162000000003  43.206136000000008 1
ion C  -4.719435000000001  18.702301000000002  43.247748000000009 1
ion C   9.378934000000001   2.722912000000000   0.010728000000000 1
ion C   2.280229000000000  14.463609000000003   0.139718000000000 1
ion C  -0.011505999999999  18.591537000000002  43.250517000000009 1
ion C  14.075432000000001   2.619142000000001  43.184680000000007 1
ion C  11.787158000000000   6.650691000000000  43.154488000000008 1
ion C   9.476156000000000  10.658580000000002   0.032702000000000 1
ion C   7.071406999999999  14.471456999999999   0.121723000000000 1
ion C   4.672174000000000  18.485882000000004   0.032485000000000 1
ion C  18.730179000000000   2.623155000000001  43.187406000000010 1
ion C  16.399968999999999   6.633483000000000  43.071262000000004 1
ion C  14.092564000000003  10.658294000000000  43.069792000000007 1
ion C  11.753499999999999  14.662510000000005  43.196576000000007 1
ion C   9.356623000000003  18.600924000000003  43.247402000000008 1
ion C   4.704048000000002   9.318946000000002   5.631539000000001 1
ion N   2.171814000000000  11.853854000000004   0.284280000000000 1
ion N   7.183784000000001  11.862390000000000   0.252660000000000 1
ion N   2.176118000000001   6.771136000000001   0.288563000000000 1
ion N   7.187404000000000   6.769917000000002   0.257418000000000 1
ion Ti   4.704048000000002   9.318946000000002   1.852106000000000 1
ion O   4.702658999999999  11.142155000000002   7.158271000000001 1
ion O   4.705448999999999   7.509904000000001   7.175098000000001 1
ion H   4.701299999999997  12.895255000000004   7.625050000000002 1

# Forces in Cartesian coordinates:
force C  -0.002455876508743  -0.000281470202704   0.000023409831590 1
force C   0.003995390152060   0.000834661990314   0.000143744172371 1
force C  -0.001645083022444   0.002091707551682   0.000033922199687 1
force C   0.000012548451627  -0.001303887939587  -0.000362558988429 1
force C   0.003019041668429   0.002444985969640   0.000011752210706 1
force C  -0.000012884093125   0.000656666287470  -0.000015895755458 1
force C   0.003536190031735   0.001021206348849   0.000667081630710 1
force C  -0.001242077488480  -0.001727315333360   0.000216589926263 1
force C   0.002545078338314   0.000658391063751   0.000661347956820 1
force C  -0.002898689145290   0.002516690489369   0.000024135441358 1
force C   0.002511465109861  -0.000250821642815   0.000019191300245 1
force C  -0.003154420458168   0.000893416075729   0.000642534312844 1
force C  -0.003749734986372  -0.000164557514942  -0.000511365725692 1
force C   0.001394701153375   0.002067471550277   0.000040979125655 1
force C  -0.004008658686900   0.000853941221588   0.000099289966724 1
force C   0.000828223636017  -0.001656282982431   0.000430008497107 1
force C  -0.000002775594630   0.000309795730497   0.000247210537592 1
force C  -0.001373891815190   0.002112346262318   0.000031236688587 1
force C  -0.000060830749884  -0.001395545093959   0.000104663104838 1
force C   0.001570499802371   0.001982562709509   0.000017909463394 1
force C  -0.002374468072940   0.000768286704868   0.000831474893837 1
force C   0.003681348285162  -0.000078787522686  -0.000569228076527 1
force C  -0.003821891596618   0.000198476635575  -0.000498265525301 1
force C   0.002403043013806  -0.000686208900215   0.000702776899715 1
force C  -0.001657871990674  -0.002085616732386   0.000039061876477 1
force C  -0.000048944732690   0.001340728160224   0.000096196037345 1
force C   0.001384983619450  -0.002038932504411   0.000033624558119 1
force C   0.000001387792895  -0.000460924277377   0.000326920530387 1
force C  -0.001794543238046   0.001470041321919  -0.000007600380012 1
force C   0.003841936652218  -0.000789766116764   0.000145722299047 1
force C  -0.001333501995678  -0.002083278569511   0.000023840356973 1
force C   0.003776469913983   0.000107710447364  -0.000544459006630 1
force C   0.003513866538471  -0.000423143441615   0.000528811877405 1
force C  -0.002494854363630   0.000295715733899   0.000037596716598 1
force C   0.003082617305352  -0.002405604321465   0.000011050725216 1
force C  -0.002260096429933  -0.000785367574358   0.000874481513455 1
force C   0.001357087947399   0.001409619330141   0.000213721063415 1
force C  -0.003116764028518  -0.000295251493752   0.000504276362427 1
force C   0.000000752623344  -0.000420148017078  -0.000054642973410 1
force C  -0.002957764010335  -0.002483880236888   0.000027945474831 1
force C   0.000019529802259   0.001409257086415  -0.000376923315666 1
force C   0.001590776623989  -0.001969060758128   0.000016913692730 1
force C  -0.003849994638835  -0.000836352839566   0.000106265707552 1
force C   0.002575608840065   0.000282293443768   0.000039225233338 1
force C  -0.000425449936803  -0.043924633689854   0.072233258711308 1
force N  -0.000705357902323   0.004279074690424   0.005003518511461 1
force N  -0.000589472981567   0.005595046157313   0.004886380297033 1
force N  -0.001566634428342  -0.004666151390639   0.003585643081096 1
force N   0.000224336069073  -0.005979753854785   0.003443447677188 1
force Ti   0.003639516111444  -0.003928613093257  -0.069665501702302 1
force O  -0.000119711646639   0.097328616363073   0.047113067008435 1
force O   0.000176291718043  -0.085056841697060  -0.050329840634347 1
force H  -0.000026565862341   0.035792873033571  -0.020940883808153 1

# Energy components:
   A_diel =       -0.0031912971366448
   Eewald =     1637.3244499159707175
       EH =     1941.6074434431404825
     Eloc =    -4111.3140669995373173
      Enl =       52.6081736976207779
     EvdW =       -0.0718768957751439
      Exc =     -109.0484157709785507
 Exc_core =        3.3095200997131085
       KE =      197.6463515416421615
  MuShift =        0.0051451952079655
-------------------------------------
     Etot =     -387.9364670701324371
       TS =        0.0006861264898939
-------------------------------------
        F =     -387.9371531966223188
      muN =      -35.9703238929185574
-------------------------------------
        G =     -351.9668293037037756


Dumping 'jdft.fillings' ... done
Dumping 'jdft.wfns' ... done
Dumping 'jdft.fluidState' ... done
Dumping 'jdft.ionpos' ... done
Dumping 'jdft.lattice' ... done
Dumping 'jdft.eigenvals' ... done
Dumping 'jdft.eigStats' ... 
	eMin: -2.297379 at state 9 ( [ +0.000000 +0.000000 +0.000000 ] spin -1 )
	HOMO: -0.162501 at state 17 ( [ -0.333333 -0.333333 +0.000000 ] spin -1 )
	mu  : -0.160200
	LUMO: -0.160065 at state 9 ( [ +0.000000 +0.000000 +0.000000 ] spin -1 )
	eMax: +0.016480 at state 4 ( [ +0.333333 +0.333333 +0.000000 ] spin 1 )
	HOMO-LUMO gap: +0.002437
	Optical gap  : +0.005815 at state 17 ( [ -0.333333 -0.333333 +0.000000 ] spin -1 )
Dumping 'jdft.Ecomponents' ... done
IonicMinimize: Iter:   0  G: -351.966829303703776  |grad|_K:  1.500e-02  t[s]:  18442.75
IonicMinimize: None of the convergence criteria satisfied after 0 iterations.

#--- Lowdin population analysis ---
# oxidation-state C +0.051 +0.064 +0.049 +0.056 +0.046 +0.054 +0.174 +0.142 +0.038 +0.046 +0.051 +0.174 +0.038 +0.055 +0.064 +0.140 +0.004 +0.055 +0.048 +0.049 +0.038 +0.038 +0.039 +0.038 +0.048 +0.048 +0.055 +0.005 +0.142 +0.064 +0.055 +0.038 +0.172 +0.050 +0.046 +0.038 +0.139 +0.172 +0.053 +0.046 +0.056 +0.049 +0.064 +0.050 +0.199
# magnetic-moments C -0.000 -0.002 -0.001 -0.001 -0.000 -0.001 -0.001 -0.003 -0.002 -0.000 +0.000 -0.002 -0.002 -0.001 -0.002 -0.002 +0.002 -0.001 +0.002 +0.000 -0.003 -0.004 -0.002 -0.003 -0.001 +0.002 -0.001 +0.001 -0.003 -0.002 -0.001 -0.004 -0.002 -0.000 -0.000 -0.003 -0.003 -0.002 -0.001 -0.000 -0.001 +0.000 -0.002 +0.000 +0.003
# oxidation-state N -0.305 -0.305 -0.304 -0.304
# magnetic-moments N +0.006 +0.006 +0.006 +0.005
# oxidation-state Ti +1.413
# magnetic-moments Ti -0.441
# oxidation-state O -0.421 -0.490
# magnetic-moments O +0.000 +0.003
# oxidation-state H +0.503
# magnetic-moments H -0.000


Dumping 'jdft.n_up' ... done
Dumping 'jdft.n_dn' ... done
Dumping 'jdft.tau_up' ... done
Dumping 'jdft.tau_dn' ... done
Dumping 'jdft.eigenvals' ... done
Dumping 'jdft.eigStats' ... 
	eMin: -2.297379 at state 9 ( [ +0.000000 +0.000000 +0.000000 ] spin -1 )
	HOMO: -0.162501 at state 17 ( [ -0.333333 -0.333333 +0.000000 ] spin -1 )
	mu  : -0.160200
	LUMO: -0.160065 at state 9 ( [ +0.000000 +0.000000 +0.000000 ] spin -1 )
	eMax: +0.016480 at state 4 ( [ +0.333333 +0.333333 +0.000000 ] spin 1 )
	HOMO-LUMO gap: +0.002437
	Optical gap  : +0.005815 at state 17 ( [ -0.333333 -0.333333 +0.000000 ] spin -1 )
Dumping 'jdft.kPts' ... done
Dumping 'jdft.dosUp' ... done.
Dumping 'jdft.dosDn' ... done.
End date and time: Tue Mar 14 18:43:34 2023  (Duration: 0-5:08:53.45)
Done!

PROFILER:             augmentDensityGrid     0.889152 +/-     1.149075 s,  995 calls,    884.706404 s total
PROFILER:         augmentDensityGridGrad     0.550201 +/-     0.610132 s,  505 calls,    277.851412 s total
PROFILER:        augmentDensitySpherical     0.000560 +/-     0.000852 s,  995 calls,      0.557294 s total
PROFILER:    augmentDensitySphericalGrad     0.000461 +/-     0.000811 s,  930 calls,      0.428470 s total
PROFILER:                 augmentOverlap     1.611615 +/-     2.607904 s, 2290 calls,   3690.597346 s total
PROFILER:        ColumnBundle::randomize     0.006728 +/-     0.000000 s,    1 calls,      0.006728 s total
PROFILER:                     diagouterI    21.792384 +/-     5.250655 s,  202 calls,   4402.061578 s total
PROFILER:              EdensityAndVscloc     7.070901 +/-     8.037817 s,  200 calls,   1414.180241 s total
PROFILER:                     EnlAndGrad     0.001311 +/-     0.002528 s, 1160 calls,      1.520718 s total
PROFILER:            ExCorrCommunication     0.083040 +/-     0.102110 s, 1213 calls,    100.727574 s total
PROFILER:               ExCorrFunctional     0.035084 +/-     0.005116 s,  204 calls,      7.157208 s total
PROFILER:                    ExCorrTotal     0.885716 +/-     0.230992 s,  204 calls,    180.686014 s total
PROFILER:                   Idag_DiagV_I    26.093841 +/-    20.699191 s,  185 calls,   4827.360587 s total
PROFILER:                    initWeights     2.470661 +/-     0.000000 s,    1 calls,      2.470661 s total
PROFILER:                    inv(matrix)     0.002442 +/-     0.000187 s,  142 calls,      0.346700 s total
PROFILER:            matrix::diagonalize     0.013663 +/-     0.007412 s,  381 calls,      5.205468 s total
PROFILER:                    matrix::set     0.000002 +/-     0.000003 s, 22900 calls,      0.050490 s total
PROFILER:            orthoMatrix(matrix)     0.002553 +/-     0.000749 s,  227 calls,      0.579500 s total
PROFILER:     RadialFunctionR::transform     0.021422 +/-     0.181252 s,  151 calls,      3.234689 s total
PROFILER:                    reduceKmesh     0.000000 +/-     0.000000 s,    1 calls,      0.000000 s total
PROFILER:   VanDerWaalsD3::energyAndGrad     0.040204 +/-     0.002066 s,    3 calls,      0.120613 s total
PROFILER:               WavefunctionDrag    18.111002 +/-     0.000000 s,    1 calls,     18.111002 s total
PROFILER:                            Y*M     0.733154 +/-     1.067358 s, 4184 calls,   3067.515759 s total
PROFILER:                          Y1^Y2     0.704115 +/-     1.067443 s, 2965 calls,   2087.701096 s total

MEMUSAGE:                   ColumnBundle     1.333771 GB
MEMUSAGE:        complexScalarFieldTilde     0.074158 GB
MEMUSAGE:                    IndexArrays     0.023178 GB
MEMUSAGE:                         matrix     0.020712 GB
MEMUSAGE:                           misc     0.051230 GB
MEMUSAGE:                    ScalarField     0.358429 GB
MEMUSAGE:               ScalarFieldTilde     0.262436 GB
MEMUSAGE:                          Total     1.613737 GB
