
*************** JDFTx 1.7.0 (git hash 5f12716a) ***************

Start date and time: Thu Nov 10 13:39:03 2022
Executable /home/nisi6161/jdftx_alpine/build/jdftx with command-line: -i in
Running on hosts (process indices):  c3cpu-c11-u3-3.rc.int.colorado.edu (0-17)
Divided in process groups (process indices):  0 (0)  1 (1)  2 (2)  3 (3)  4 (4)  5 (5)  6 (6)  7 (7)  8 (8)  9 (9)  10 (10)  11 (11)  12 (12)  13 (13)  14 (14)  15 (15)  16 (16)  17 (17)
Resource initialization completed at t[s]:      0.01
Run totals: 18 processes, 48 threads, 0 GPUs


Input parsed successfully to the following command list (including defaults):

basis kpoint-dependent
converge-empty-states yes
coords-type Cartesian
core-overlap-check none
coulomb-interaction Periodic
davidson-band-ratio 1.1
density-of-states Etol 1.000000e-06 Esigma 1.000000e-03 \
		Complete \
	Total \
	OrthoOrbital C 1   s \
	OrthoOrbital C 1   p \
	OrthoOrbital C 1   px \
	OrthoOrbital C 1   py \
	OrthoOrbital C 1   pz \
	OrthoOrbital O 1   s \
	OrthoOrbital O 1   p \
	OrthoOrbital O 1   px \
	OrthoOrbital O 1   py \
	OrthoOrbital O 1   pz
dump End ElecDensity KEdensity BandEigs EigStats RhoAtom DOS Kpoints
dump Ionic State IonicPositions Lattice EigStats Ecomponents
dump 
dump 
dump 
dump 
dump 
dump 
dump 
dump 
dump-name jdft.$VAR
elec-cutoff 20
elec-eigen-algo Davidson
elec-ex-corr gga-PBE
elec-initial-magnetization 0.000000 no
elec-n-bands 15
elec-smearing Fermi 0.001
electronic-minimize  \
	dirUpdateScheme      FletcherReeves \
	linminMethod         DirUpdateRecommended \
	nIterations          100 \
	history              15 \
	knormThreshold       0 \
	energyDiffThreshold  1e-07 \
	nEnergyDiff          2 \
	alphaTstart          1 \
	alphaTmin            1e-10 \
	updateTestStepSize   yes \
	alphaTreduceFactor   0.1 \
	alphaTincreaseFactor 3 \
	nAlphaAdjustMax      3 \
	wolfeEnergy          0.0001 \
	wolfeGradient        0.9 \
	fdTest               no
exchange-regularization WignerSeitzTruncated
fluid LinearPCM 298.000000 1.013250
fluid-anion F- 0.5 MeanFieldLJ \
	epsBulk 1 \
	pMol 0 \
	epsInf 1 \
	Pvap 0 \
	sigmaBulk 0 \
	Rvdw 2.24877 \
	Res 0 \
	tauNuc 343133
fluid-cation Na+ 0.5 MeanFieldLJ \
	epsBulk 1 \
	pMol 0 \
	epsInf 1 \
	Pvap 0 \
	sigmaBulk 0 \
	Rvdw 2.19208 \
	Res 0 \
	tauNuc 343133
fluid-ex-corr lda-TF lda-PZ
fluid-gummel-loop 10 1.000000e-05
fluid-minimize  \
	dirUpdateScheme      PolakRibiere \
	linminMethod         DirUpdateRecommended \
	nIterations          400 \
	history              15 \
	knormThreshold       1e-11 \
	energyDiffThreshold  0 \
	nEnergyDiff          2 \
	alphaTstart          1 \
	alphaTmin            1e-10 \
	updateTestStepSize   yes \
	alphaTreduceFactor   0.1 \
	alphaTincreaseFactor 3 \
	nAlphaAdjustMax      6 \
	wolfeEnergy          0.0001 \
	wolfeGradient        0.9 \
	fdTest               no
fluid-solvent H2O 55.338 ScalarEOS \
	epsBulk 78.4 \
	pMol 0.92466 \
	epsInf 1.77 \
	Pvap 1.06736e-10 \
	sigmaBulk 4.62e-05 \
	Rvdw 2.61727 \
	Res 1.42 \
	tauNuc 343133 \
	poleEl 15 7 1
forces-output-coords Positions
ion C   0.021448000000000   0.346009000000000   0.842194000000000 1
ion O   0.081542000000000   0.346009000000000   2.997539999999999 1
ion-species /projects/musgravc/apps/jdftx-1.6.0/build/pseudopotentials/GBRV_v1.5/$ID_pbe_v1.uspp
ion-species /projects/musgravc/apps/jdftx-1.6.0/build/pseudopotentials/GBRV_v1.5/$ID_pbe_v1.2.uspp
ion-species /projects/musgravc/apps/jdftx-1.6.0/build/pseudopotentials/GBRV_v1.5/$ID_pbe_v1.4.uspp
ion-species /projects/musgravc/apps/jdftx-1.6.0/build/pseudopotentials/GBRV_v1.5/$ID_pbe_v1.5.uspp
ion-width Ecut
ionic-minimize  \
	dirUpdateScheme      L-BFGS \
	linminMethod         DirUpdateRecommended \
	nIterations          100 \
	history              15 \
	knormThreshold       0.0001 \
	energyDiffThreshold  0.0001 \
	nEnergyDiff          2 \
	alphaTstart          1 \
	alphaTmin            1e-10 \
	updateTestStepSize   yes \
	alphaTreduceFactor   0.1 \
	alphaTincreaseFactor 3 \
	nAlphaAdjustMax      3 \
	wolfeEnergy          0.0001 \
	wolfeGradient        0.9 \
	fdTest               no
kpoint   0.000000000000   0.000000000000   0.000000000000  1.00000000000000
kpoint-folding 7 7 7 
latt-move-scale 0 0 0
latt-scale 1 1 1 
lattice  \
	  18.897261000000000    0.000000000000000    0.000000000000000  \
	   0.000000000000000   18.897261000000000    0.000000000000000  \
	   0.000000000000000    0.000000000000000   18.897261000000000 
lattice-minimize  \
	dirUpdateScheme      L-BFGS \
	linminMethod         DirUpdateRecommended \
	nIterations          0 \
	history              15 \
	knormThreshold       0 \
	energyDiffThreshold  1e-06 \
	nEnergyDiff          2 \
	alphaTstart          1 \
	alphaTmin            1e-10 \
	updateTestStepSize   yes \
	alphaTreduceFactor   0.1 \
	alphaTincreaseFactor 3 \
	nAlphaAdjustMax      3 \
	wolfeEnergy          0.0001 \
	wolfeGradient        0.9 \
	fdTest               no
lcao-params 30 1e-06 0.001
pcm-variant CANDLE
spintype z-spin
subspace-rotation-factor 1 yes
symmetries none
symmetry-threshold 0.0001
van-der-waals D3
vibrations \
	dr 0.01\
	centralDiff no\
	useConstraints yes\
	translationSym yes\
	rotationSym no\
	omegaMin 0.0002\
	T 298\
	omegaResolution 0.0001


Applied RMS atom displacement 0 bohrs to make symmetries exact.
Applied RMS atom displacement 0 bohrs to make symmetries exact.

---------- Initializing the Grid ----------
R = 
[      18.8973            0            0  ]
[            0      18.8973            0  ]
[            0            0      18.8973  ]
unit cell volume = 6748.33
G =
[   0.332492          0          0  ]
[          0   0.332492          0  ]
[          0          0   0.332492  ]
Minimum fftbox size, Smin = [  80  80  80  ]
Chosen fftbox size, S = [  80  80  80  ]

---------- Exchange Correlation functional ----------
Initalized PBE GGA exchange.
Initalized PBE GGA correlation.

---------- Setting up pseudopotentials ----------
Width of ionic core gaussian charges (only for fluid interactions / plotting) set to 0.397384

Reading pseudopotential file '/projects/musgravc/apps/jdftx-1.6.0/build/pseudopotentials/GBRV_v1.5/c_pbe_v1.2.uspp':
  Title: C.  Created by USPP 7.3.6 on 3-2-2014
  Reference state energy: -5.406344.  4 valence electrons in orbitals:
    |200>  occupation: 2  eigenvalue: -0.504890
    |210>  occupation: 2  eigenvalue: -0.194356
  lMax: 1  lLocal: 2  QijEcut: 5
  4 projectors sampled on a log grid with 503 points:
    l: 0  eig: -0.504890  rCut: 1.3
    l: 0  eig: 0.000000  rCut: 1.3
    l: 1  eig: -0.194357  rCut: 1.3
    l: 1  eig: 0.000000  rCut: 1.3
  Partial core density with radius 1.1
  Transforming core density to a uniform radial grid of dG=0.02 with 1157 points.
  Transforming local potential to a uniform radial grid of dG=0.02 with 1157 points.
  Transforming nonlocal projectors to a uniform radial grid of dG=0.02 with 432 points.
  Transforming density augmentations to a uniform radial grid of dG=0.02 with 1157 points.
  Transforming atomic orbitals to a uniform radial grid of dG=0.02 with 432 points.
  Core radius for overlap checks: 1.30 bohrs.

Reading pseudopotential file '/projects/musgravc/apps/jdftx-1.6.0/build/pseudopotentials/GBRV_v1.5/o_pbe_v1.2.uspp':
  Title: O.  Created by USPP 7.3.6 on 3-2-2014
  Reference state energy: -15.894388.  6 valence electrons in orbitals:
    |200>  occupation: 2  eigenvalue: -0.878823
    |210>  occupation: 4  eigenvalue: -0.332131
  lMax: 2  lLocal: 2  QijEcut: 6
  5 projectors sampled on a log grid with 511 points:
    l: 0  eig: -0.878823  rCut: 1.25
    l: 0  eig: 0.000000  rCut: 1.25
    l: 1  eig: -0.332132  rCut: 1.25
    l: 1  eig: 0.000000  rCut: 1.25
    l: 2  eig: 1.000000  rCut: 1.25
  Partial core density with radius 0.7
  Transforming core density to a uniform radial grid of dG=0.02 with 1157 points.
  Transforming local potential to a uniform radial grid of dG=0.02 with 1157 points.
  Transforming nonlocal projectors to a uniform radial grid of dG=0.02 with 432 points.
  Transforming density augmentations to a uniform radial grid of dG=0.02 with 1157 points.
  Transforming atomic orbitals to a uniform radial grid of dG=0.02 with 432 points.
  Core radius for overlap checks: 1.25 bohrs.

Initialized 2 species with 2 total atoms.

Folded 1 k-points by 7x7x7 to 343 k-points.

---------- Setting up k-points, bands, fillings ----------
No reducable k-points. 
Computing the number of bands and number of electrons
Calculating initial fillings.
nElectrons:  10.000000   nBands: 15   nStates: 686

----- Setting up reduced wavefunction bases (one per k-point) -----
average nbasis = 28829.222 , ideal nbasis = 28829.398

----- Initializing Supercell corresponding to k-point mesh -----
Lattice vector linear combinations in supercell:
[   7   0   0  ]
[   0   7   0  ]
[   0   0   7  ]
Supercell lattice vectors:
[  132.281  0  0  ]
[  0  132.281  0  ]
[  0  0  132.281  ]

Initializing DFT-D3 calculator:
	Parameters set for gga-PBE functional
	s6:  1.000  s_r6:  1.217
	s8:  0.722  s_r8:  1.000
	Per-atom parameters loaded for:
	 C:  sqrtQ[a0]:  3.105  Rcov[a0]:  1.417  CN: [ 0.00 0.99 2.00 3.00 3.98 ]
	 O:  sqrtQ[a0]:  2.594  Rcov[a0]:  1.191  CN: [ 0.00 0.99 1.99 ]

Initializing DFT-D2 calculator for fluid / solvation:
	 C:  C6:   30.35 Eh-a0^6  R0: 2.744 a0
	 O:  C6:   12.14 Eh-a0^6  R0: 2.536 a0

---------- Setting up ewald sum ----------
Optimum gaussian width for ewald sums = 6.716411 bohr.
Real space sum over 1331 unit cells with max indices [  5  5  5  ]
Reciprocal space sum over 2197 terms with max indices [  6  6  6  ]

Computing DFT-D3 correction:
# coordination-number C 1.000
# coordination-number O 1.000
# diagonal-C6 C 43.07
# diagonal-C6 O 12.81
EvdW_6 =   -0.000009
EvdW_8 =   -0.000001

---------- Allocating electronic variables ----------
Initializing wave functions:  linear combination of atomic orbitals
Note: number of bands (15) exceeds available atomic orbitals (8)
C pseudo-atom occupations:   s ( 2 )  p ( 2 )
O pseudo-atom occupations:   s ( 2 )  p ( 4 )
	FillingsUpdate:  mu: -0.178645904  nElectrons: 10.000000  magneticMoment: [ Abs: 0.00038  Tot: -0.00000 ]
LCAOMinimize: Iter:   0  F: -21.5019794667575468  |grad|_K:  1.039e-03  alpha:  1.000e+00
	FillingsUpdate:  mu: -0.197528371  nElectrons: 10.000000  magneticMoment: [ Abs: 0.00041  Tot: +0.00000 ]
LCAOMinimize: Iter:   1  F: -21.5252630202273529  |grad|_K:  2.712e-04  alpha:  2.179e-01  linmin: -5.419e-01  cgtest:  8.269e-01  t[s]:    187.62
LCAOMinimize: Encountered beta<0, resetting CG.
	FillingsUpdate:  mu: -0.198592163  nElectrons: 10.000000  magneticMoment: [ Abs: 0.00045  Tot: -0.00000 ]
LCAOMinimize: Iter:   2  F: -21.5275194327643788  |grad|_K:  1.603e-04  alpha:  4.018e-01  linmin:  1.404e-02  cgtest: -5.433e-02  t[s]:    266.33
	FillingsUpdate:  mu: -0.194750641  nElectrons: 10.000000  magneticMoment: [ Abs: 0.00050  Tot: +0.00000 ]
LCAOMinimize: Iter:   3  F: -21.5286111774163125  |grad|_K:  1.781e-05  alpha:  5.791e-01  linmin:  1.236e-01  cgtest:  1.397e-01  t[s]:    345.22
LCAOMinimize: Encountered beta<0, resetting CG.
	FillingsUpdate:  mu: -0.194690831  nElectrons: 10.000000  magneticMoment: [ Abs: 0.00050  Tot: +0.00000 ]
LCAOMinimize: Iter:   4  F: -21.5286201471027674  |grad|_K:  9.226e-06  alpha:  3.665e-01  linmin:  7.642e-05  cgtest:  1.613e-04  t[s]:    424.13
	FillingsUpdate:  mu: -0.194908167  nElectrons: 10.000000  magneticMoment: [ Abs: 0.00051  Tot: -0.00000 ]
LCAOMinimize: Iter:   5  F: -21.5286241102267901  |grad|_K:  3.538e-08  alpha:  6.024e-01  linmin: -2.689e-01  cgtest:  8.131e-01  t[s]:    502.97
LCAOMinimize: Encountered beta<0, resetting CG.
	FillingsUpdate:  mu: -0.194909172  nElectrons: 10.000000  magneticMoment: [ Abs: 0.00051  Tot: -0.00000 ]
LCAOMinimize: Iter:   6  F: -21.5286241102945368  |grad|_K:  2.244e-08  alpha:  7.019e-01  linmin:  1.068e-04  cgtest: -2.228e-03  t[s]:    581.59
	FillingsUpdate:  mu: -0.194909186  nElectrons: 10.000000  magneticMoment: [ Abs: 0.00051  Tot: -0.00000 ]
LCAOMinimize: Iter:   7  F: -21.5286241103072804  |grad|_K:  2.226e-09  alpha:  3.264e-01  linmin: -2.044e-04  cgtest:  2.185e-02  t[s]:    658.77
LCAOMinimize: Converged (|Delta F|<1.000000e-06 for 2 iters).
----- createFluidSolver() ----- (Fluid-side solver setup)
   Initializing fluid molecule 'H2O'
     Initializing site 'O'
       Electron density: proportional to exp(-r/0.36935)*erfc((r-0.51523)/0.36823) with norm 6.826
       Charge density: gaussian nuclear width 0.478731 with net site charge 0.826
       Polarizability: cuspless exponential with width 0.32 and norm 3.73
       Hard sphere radius: 2.57003 bohrs
       Positions in reference frame:
         [ +0.000000 +0.000000 +0.000000 ]
     Initializing site 'H'
       Electron density: proportional to exp(-r/0.34641)*erfc((r-0)/0.390882) with norm 0.587
       Charge density: gaussian nuclear width 0.377945 with net site charge -0.413
       Polarizability: cuspless exponential with width 0.39 and norm 3.3
       Positions in reference frame:
         [ +0.000000 -1.441945 +1.122523 ]
         [ +0.000000 +1.441945 +1.122523 ]
     Net charge: 0   dipole magnitude: 0.927204
     Initializing spherical shell mfKernel with radius 2.61727 Bohr
     deltaS corrections:
       site 'O': -7.54299
       site 'H': -6.83917
   Initializing fluid molecule 'Na+'
     Initializing site 'Na'
       Electron density: proportional to exp(-r/0.19682)*erfc((r-0.71491)/0.41314) with norm 8.1383
       Charge density: gaussian nuclear width 0.365347 with net site charge -1
       Hard sphere radius: 1.86327 bohrs
       Positions in reference frame:
         [ +0.000000 +0.000000 +0.000000 ]
     Net charge: -1   dipole magnitude: 0
     Initializing gaussian mfKernel with width: 1.55004 Bohr
     deltaS corrections:
       site 'Na': -22.3555
   Initializing fluid molecule 'F-'
     Initializing site 'F'
       Electron density: proportional to exp(-r/0.38886)*erfc((r-0)/0.438782) with norm 8
       Charge density: gaussian nuclear width 0.374796 with net site charge 1
       Hard sphere radius: 2.39995 bohrs
       Positions in reference frame:
         [ +0.000000 +0.000000 +0.000000 ]
     Net charge: 1   dipole magnitude: 0
     Initializing gaussian mfKernel with width: 1.59012 Bohr
     deltaS corrections:
       site 'F': -9.04335

Correction to mu due to finite nuclear width = -0.00147029
   Cavity determined by nc: 0.00142 and sigma: 0.707107
   Nonlocal vdW cavity from gaussian model electron density with norm = 8 and sigma = 0.993594 bohr
   Charge asymmetry in cavity with sensitivity pCavity = 36.5 e-bohr/Eh
   Electrostatic cavity expanded by eta = 1.46 bohrs
   Weighted density cavitation model constrained by Nbulk: 0.0049383 bohr^-3, Pvap: 3.14029 kPa, Rvdw: 2.61727 bohr and sigmaBulk: 4.62e-05 Eh/bohr^2 at T: 298 K.
   Weighted density dispersion model using vdW pair potentials with single solvent site with sqrtC6eff: 0.77 SI.
WARNING: Vibrations: switching off translationSym and rotationSym since useConstraints is on.

---- Citations for features of the code used in this run ----

   Software package:
      R. Sundararaman, K. Letchworth-Weaver, K.A. Schwarz, D. Gunceler, Y. Ozhabes and T.A. Arias, 'JDFTx: software for joint density-functional theory', SoftwareX 6, 278 (2017)

   gga-PBE exchange-correlation functional:
      J.P. Perdew, K. Burke and M. Ernzerhof, Phys. Rev. Lett. 77, 3865 (1996)

   Pseudopotentials:
      KF Garrity, JW Bennett, KM Rabe and D Vanderbilt, Comput. Mater. Sci. 81, 446 (2014)

   DFT-D3 dispersion correction:
      S. Grimme, J. Antony, S. Ehrlich and H. Krieg, J. Chem. Phys. 132, 154104 (2010)

   DFT-D2 dispersion correction:
      S. Grimme, J. Comput. Chem. 27, 1787 (2006)

   Charge-asymmetric nonlocally-determined local-electric (CANDLE) solvation model:
      R. Sundararaman and W.A. Goddard III, J. Chem. Phys. 142, 064107 (2015)

   Total energy minimization with Auxiliary Hamiltonian:
      C. Freysoldt, S. Boeck, and J. Neugebauer, Phys. Rev. B 79, 241103(R) (2009)

   Linear-tetrahedron sampling for density of states:
      G. Lehmann and M. Taut, Phys. status solidi (b) 54, 469 (1972)

This list may not be complete. Please suggest additional citations or
report any other bugs at https://github.com/shankar1729/jdftx/issues

Initialization completed successfully at t[s]:    665.83

------ Vibrations::calculate() -------
WARNING: Vibrations module is experimental. Please report bugs!
Compare results with and without symmetries and report discrepancies.
Degrees of freedom: 6 total, 6 symmetry-independent.

Computing DFT-D3 correction:
# coordination-number C 1.000
# coordination-number O 1.000
# diagonal-C6 C 43.07
# diagonal-C6 O 12.81
EvdW_6 =   -0.000009
EvdW_8 =   -0.000001
Fluid solver invoked on fresh (random / LCAO) wavefunctions
Running a vacuum solve first:

-------- Initial electronic minimization -----------
	FillingsUpdate:  mu: -0.194909186  nElectrons: 10.000000  magneticMoment: [ Abs: 0.00051  Tot: +0.00000 ]
ElecMinimize: Iter:   0  F: -21.528624110307273  |grad|_K:  3.270e-05  alpha:  1.000e+00
	FillingsUpdate:  mu: -0.085845117  nElectrons: 10.000000  magneticMoment: [ Abs: 0.00030  Tot: -0.00000 ]
	SubspaceRotationAdjust: set factor to 1
ElecMinimize: Iter:   1  F: -21.714707395532301  |grad|_K:  1.090e-05  alpha:  5.990e-01  linmin:  9.975e-04  t[s]:    816.32
	FillingsUpdate:  mu: -0.095608212  nElectrons: 10.000000  magneticMoment: [ Abs: 0.00017  Tot: -0.00000 ]
	SubspaceRotationAdjust: set factor to 0.966
ElecMinimize: Iter:   2  F: -21.737854026201568  |grad|_K:  5.352e-06  alpha:  6.635e-01  linmin: -1.747e-04  t[s]:    902.48
	FillingsUpdate:  mu: -0.100000000  nElectrons: 10.000000  magneticMoment: [ Abs: 0.00012  Tot: +0.00000 ]
	SubspaceRotationAdjust: set factor to 0.756
ElecMinimize: Iter:   3  F: -21.743768074716083  |grad|_K:  3.940e-06  alpha:  6.849e-01  linmin:  1.926e-04  t[s]:    988.02
	FillingsUpdate:  mu: -0.100000000  nElectrons: 10.000000  magneticMoment: [ Abs: 0.00013  Tot: -0.00000 ]
	SubspaceRotationAdjust: set factor to 0.67
ElecMinimize: Iter:   4  F: -21.745561694301010  |grad|_K:  1.859e-06  alpha:  4.057e-01  linmin:  3.639e-06  t[s]:   1073.18
	FillingsUpdate:  mu: -0.100000000  nElectrons: 10.000000  magneticMoment: [ Abs: 0.00011  Tot: -0.00000 ]
	SubspaceRotationAdjust: set factor to 0.945
ElecMinimize: Iter:   5  F: -21.746253672478858  |grad|_K:  1.079e-06  alpha:  6.871e-01  linmin:  9.710e-05  t[s]:   1158.22
	FillingsUpdate:  mu: -0.100000000  nElectrons: 10.000000  magneticMoment: [ Abs: 0.00008  Tot: -0.00000 ]
	SubspaceRotationAdjust: set factor to 0.957
ElecMinimize: Iter:   6  F: -21.746456450748134  |grad|_K:  7.430e-07  alpha:  6.121e-01  linmin:  1.300e-05  t[s]:   1243.09
	FillingsUpdate:  mu: -0.100000000  nElectrons: 10.000000  magneticMoment: [ Abs: 0.00006  Tot: -0.00000 ]
	SubspaceRotationAdjust: set factor to 1.08
ElecMinimize: Iter:   7  F: -21.746528363452715  |grad|_K:  3.976e-07  alpha:  4.374e-01  linmin:  1.602e-06  t[s]:   1328.04
	FillingsUpdate:  mu: -0.100000000  nElectrons: 10.000000  magneticMoment: [ Abs: 0.00003  Tot: -0.00000 ]
	SubspaceRotationAdjust: set factor to 1.32
ElecMinimize: Iter:   8  F: -21.746558069506008  |grad|_K:  2.243e-07  alpha:  6.390e-01  linmin:  1.364e-05  t[s]:   1412.56
	FillingsUpdate:  mu: -0.100000000  nElectrons: 10.000000  magneticMoment: [ Abs: 0.00002  Tot: -0.00000 ]
	SubspaceRotationAdjust: set factor to 1.28
ElecMinimize: Iter:   9  F: -21.746566146242312  |grad|_K:  1.652e-07  alpha:  5.507e-01  linmin:  1.614e-06  t[s]:   1497.20
	FillingsUpdate:  mu: -0.100000000  nElectrons: 10.000000  magneticMoment: [ Abs: 0.00001  Tot: -0.00000 ]
	SubspaceRotationAdjust: set factor to 1.17
ElecMinimize: Iter:  10  F: -21.746568984644334  |grad|_K:  9.860e-08  alpha:  3.503e-01  linmin: -9.643e-07  t[s]:   1581.86
	FillingsUpdate:  mu: -0.100000000  nElectrons: 10.000000  magneticMoment: [ Abs: 0.00001  Tot: -0.00000 ]
	SubspaceRotationAdjust: set factor to 1.55
ElecMinimize: Iter:  11  F: -21.746570554515586  |grad|_K:  4.991e-08  alpha:  5.448e-01  linmin:  3.119e-06  t[s]:   1666.56
	FillingsUpdate:  mu: -0.100000000  nElectrons: 10.000000  magneticMoment: [ Abs: 0.00000  Tot: +0.00000 ]
	SubspaceRotationAdjust: set factor to 1.3
ElecMinimize: Iter:  12  F: -21.746570957143739  |grad|_K:  3.863e-08  alpha:  5.479e-01  linmin: -6.648e-07  t[s]:   1751.17
	FillingsUpdate:  mu: -0.100000000  nElectrons: 10.000000  magneticMoment: [ Abs: 0.00000  Tot: -0.00000 ]
	SubspaceRotationAdjust: set factor to 1.14
ElecMinimize: Iter:  13  F: -21.746571099889056  |grad|_K:  2.345e-08  alpha:  3.225e-01  linmin: -5.049e-08  t[s]:   1835.72
	FillingsUpdate:  mu: -0.100000000  nElectrons: 10.000000  magneticMoment: [ Abs: 0.00000  Tot: -0.00000 ]
	SubspaceRotationAdjust: set factor to 1.64
ElecMinimize: Iter:  14  F: -21.746571176782307  |grad|_K:  1.170e-08  alpha:  4.710e-01  linmin: -1.046e-07  t[s]:   1921.59
	FillingsUpdate:  mu: -0.100000000  nElectrons: 10.000000  magneticMoment: [ Abs: 0.00000  Tot: +0.00000 ]
	SubspaceRotationAdjust: set factor to 1.44
ElecMinimize: Iter:  15  F: -21.746571200249708  |grad|_K:  9.452e-09  alpha:  5.775e-01  linmin:  4.216e-08  t[s]:   2006.12
ElecMinimize: Converged (|Delta F|<1.000000e-07 for 2 iters).
Setting wave functions to eigenvectors of Hamiltonian
Converging empty states (this may take a while): |deigs|: 2.986e-02
Vacuum energy after initial minimize, F = -21.746571200249708


-------- Electronic minimization -----------
	Linear fluid (dielectric constant: 78.4, screening length: 8.12261 Bohr) occupying 0.889301 of unit cell:	Completed after 14 iterations at t[s]:   2315.90
	FillingsUpdate:  mu: -0.100000000  nElectrons: 10.000000  magneticMoment: [ Abs: 0.00000  Tot: +0.00000 ]
ElecMinimize: Iter:   0  F: -21.745328810347733  |grad|_K:  7.556e-07  alpha:  1.000e+00
	Linear fluid (dielectric constant: 78.4, screening length: 8.12261 Bohr) occupying 0.890195 of unit cell:	Completed after 9 iterations at t[s]:   2385.13
	Linear fluid (dielectric constant: 78.4, screening length: 8.12261 Bohr) occupying 0.889887 of unit cell:	Completed after 8 iterations at t[s]:   2408.72
	FillingsUpdate:  mu: -0.099547330  nElectrons: 10.000000  magneticMoment: [ Abs: 0.00000  Tot: -0.00000 ]
	SubspaceRotationAdjust: set factor to 1.06
ElecMinimize: Iter:   1  F: -21.745441710156577  |grad|_K:  5.851e-07  alpha:  6.590e-01  linmin: -6.906e-07  t[s]:   2449.45
	Linear fluid (dielectric constant: 78.4, screening length: 8.12261 Bohr) occupying 0.890215 of unit cell:	Completed after 7 iterations at t[s]:   2475.10
	Linear fluid (dielectric constant: 78.4, screening length: 8.12261 Bohr) occupying 0.890031 of unit cell:	Completed after 6 iterations at t[s]:   2498.26
	FillingsUpdate:  mu: -0.099469525  nElectrons: 10.000000  magneticMoment: [ Abs: 0.00000  Tot: +0.00000 ]
	SubspaceRotationAdjust: set factor to 0.699
ElecMinimize: Iter:   2  F: -21.745471540023630  |grad|_K:  2.398e-07  alpha:  2.912e-01  linmin: -1.107e-05  t[s]:   2538.90
	Linear fluid (dielectric constant: 78.4, screening length: 8.12261 Bohr) occupying 0.890018 of unit cell:	Completed after 3 iterations at t[s]:   2563.94
ElecMinimize: 	Predicted alpha/alphaT>3.000000, increasing alphaT to 8.734939e-01.
	Linear fluid (dielectric constant: 78.4, screening length: 8.12261 Bohr) occupying 0.889991 of unit cell:	Completed after 4 iterations at t[s]:   2586.88
	Linear fluid (dielectric constant: 78.4, screening length: 8.12261 Bohr) occupying 0.889988 of unit cell:	Completed after 0 iterations at t[s]:   2608.92
	FillingsUpdate:  mu: -0.099815543  nElectrons: 10.000000  magneticMoment: [ Abs: 0.00000  Tot: -0.00000 ]
	SubspaceRotationAdjust: set factor to 1.06
ElecMinimize: Iter:   3  F: -21.745487567439689  |grad|_K:  1.348e-07  alpha:  9.352e-01  linmin: -2.031e-05  t[s]:   2649.48
	Linear fluid (dielectric constant: 78.4, screening length: 8.12261 Bohr) occupying 0.889949 of unit cell:	Completed after 4 iterations at t[s]:   2674.52
	Linear fluid (dielectric constant: 78.4, screening length: 8.12261 Bohr) occupying 0.889963 of unit cell:	Completed after 2 iterations at t[s]:   2697.04
	FillingsUpdate:  mu: -0.099774733  nElectrons: 10.000000  magneticMoment: [ Abs: 0.00000  Tot: -0.00000 ]
	SubspaceRotationAdjust: set factor to 0.912
ElecMinimize: Iter:   4  F: -21.745490766266290  |grad|_K:  7.568e-08  alpha:  5.899e-01  linmin:  6.289e-06  t[s]:   2737.69
	Linear fluid (dielectric constant: 78.4, screening length: 8.12261 Bohr) occupying 0.889946 of unit cell:	Completed after 2 iterations at t[s]:   2762.45
	Linear fluid (dielectric constant: 78.4, screening length: 8.12261 Bohr) occupying 0.889950 of unit cell:	Completed after 1 iterations at t[s]:   2784.80
	FillingsUpdate:  mu: -0.099777126  nElectrons: 10.000000  magneticMoment: [ Abs: 0.00000  Tot: +0.00000 ]
	SubspaceRotationAdjust: set factor to 0.693
ElecMinimize: Iter:   5  F: -21.745491526784296  |grad|_K:  4.201e-08  alpha:  4.505e-01  linmin:  5.353e-06  t[s]:   2825.39
	Linear fluid (dielectric constant: 78.4, screening length: 8.12261 Bohr) occupying 0.889946 of unit cell:	Completed after 2 iterations at t[s]:   2850.16
	Linear fluid (dielectric constant: 78.4, screening length: 8.12261 Bohr) occupying 0.889945 of unit cell:	Completed after 0 iterations at t[s]:   2872.22
	FillingsUpdate:  mu: -0.099759345  nElectrons: 10.000000  magneticMoment: [ Abs: 0.00000  Tot: -0.00000 ]
	SubspaceRotationAdjust: set factor to 0.738
ElecMinimize: Iter:   6  F: -21.745491824695232  |grad|_K:  1.854e-08  alpha:  5.649e-01  linmin: -8.730e-05  t[s]:   2912.91
	Linear fluid (dielectric constant: 78.4, screening length: 8.12261 Bohr) occupying 0.889946 of unit cell:	Completed after 0 iterations at t[s]:   2937.22
	Linear fluid (dielectric constant: 78.4, screening length: 8.12261 Bohr) occupying 0.889946 of unit cell:	Completed after 1 iterations at t[s]:   2959.66
	FillingsUpdate:  mu: -0.099755003  nElectrons: 10.000000  magneticMoment: [ Abs: 0.00000  Tot: -0.00000 ]
	SubspaceRotationAdjust: set factor to 0.749
ElecMinimize: Iter:   7  F: -21.745491890988063  |grad|_K:  1.404e-08  alpha:  7.380e-01  linmin:  6.283e-04  t[s]:   3000.26
	Linear fluid (dielectric constant: 78.4, screening length: 8.12261 Bohr) occupying 0.889947 of unit cell:	Completed after 2 iterations at t[s]:   3025.03
	Linear fluid (dielectric constant: 78.4, screening length: 8.12261 Bohr) occupying 0.889947 of unit cell:	Completed after 0 iterations at t[s]:   3047.05
	FillingsUpdate:  mu: -0.099770608  nElectrons: 10.000000  magneticMoment: [ Abs: 0.00000  Tot: -0.00000 ]
	SubspaceRotationAdjust: set factor to 0.593
ElecMinimize: Iter:   8  F: -21.745491919062339  |grad|_K:  1.192e-08  alpha:  4.022e-01  linmin:  7.684e-04  t[s]:   3087.72
ElecMinimize: Converged (|Delta F|<1.000000e-07 for 2 iters).
Setting wave functions to eigenvectors of Hamiltonian
Converging empty states (this may take a while): |deigs|: 3.219e-04
Single-point solvation energy estimate, DeltaF = +0.001079281187369

Computing DFT-D3 correction:
# coordination-number C 1.000
# coordination-number O 1.000
# diagonal-C6 C 43.07
# diagonal-C6 O 12.81
EvdW_6 =   -0.000009
EvdW_8 =   -0.000001
Completed 1 of 7 configurations.

Computing DFT-D3 correction:
# coordination-number C 1.000
# coordination-number O 1.000
# diagonal-C6 C 43.07
# diagonal-C6 O 12.81
EvdW_6 =   -0.000009
EvdW_8 =   -0.000001

-------- Electronic minimization -----------
	Linear fluid (dielectric constant: 78.4, screening length: 8.12261 Bohr) occupying 0.889951 of unit cell:	Completed after 6 iterations at t[s]:   3290.10
	FillingsUpdate:  mu: -0.099714944  nElectrons: 10.000000  magneticMoment: [ Abs: 0.00000  Tot: -0.00000 ]
ElecMinimize: Iter:   0  F: -21.745473600539185  |grad|_K:  2.918e-07  alpha:  1.000e+00
	Linear fluid (dielectric constant: 78.4, screening length: 8.12261 Bohr) occupying 0.889950 of unit cell:	Completed after 6 iterations at t[s]:   3358.69
	Linear fluid (dielectric constant: 78.4, screening length: 8.12261 Bohr) occupying 0.889951 of unit cell:	Completed after 3 iterations at t[s]:   3381.48
	FillingsUpdate:  mu: -0.099728267  nElectrons: 10.000000  magneticMoment: [ Abs: 0.00000  Tot: +0.00000 ]
	SubspaceRotationAdjust: set factor to 0.827
ElecMinimize: Iter:   1  F: -21.745489401301910  |grad|_K:  9.547e-08  alpha:  6.248e-01  linmin:  8.290e-05  t[s]:   3422.15
	Linear fluid (dielectric constant: 78.4, screening length: 8.12261 Bohr) occupying 0.889952 of unit cell:	Completed after 2 iterations at t[s]:   3446.96
	Linear fluid (dielectric constant: 78.4, screening length: 8.12261 Bohr) occupying 0.889952 of unit cell:	Completed after 1 iterations at t[s]:   3469.40
	FillingsUpdate:  mu: -0.099703733  nElectrons: 10.000000  magneticMoment: [ Abs: 0.00000  Tot: +0.00000 ]
	SubspaceRotationAdjust: set factor to 1.07
ElecMinimize: Iter:   2  F: -21.745491358337119  |grad|_K:  5.533e-08  alpha:  7.241e-01  linmin: -2.350e-04  t[s]:   3510.57
	Linear fluid (dielectric constant: 78.4, screening length: 8.12261 Bohr) occupying 0.889950 of unit cell:	Completed after 2 iterations at t[s]:   3535.69
	Linear fluid (dielectric constant: 78.4, screening length: 8.12261 Bohr) occupying 0.889950 of unit cell:	Completed after 2 iterations at t[s]:   3558.68
	FillingsUpdate:  mu: -0.099729198  nElectrons: 10.000000  magneticMoment: [ Abs: 0.00000  Tot: -0.00000 ]
	SubspaceRotationAdjust: set factor to 1.02
ElecMinimize: Iter:   3  F: -21.745491855418280  |grad|_K:  2.663e-08  alpha:  5.405e-01  linmin:  3.064e-04  t[s]:   3600.55
	Linear fluid (dielectric constant: 78.4, screening length: 8.12261 Bohr) occupying 0.889951 of unit cell:	Completed after 2 iterations at t[s]:   3626.35
	Linear fluid (dielectric constant: 78.4, screening length: 8.12261 Bohr) occupying 0.889951 of unit cell:	Completed after 0 iterations at t[s]:   3649.47
	FillingsUpdate:  mu: -0.099718709  nElectrons: 10.000000  magneticMoment: [ Abs: 0.00000  Tot: +0.00000 ]
	SubspaceRotationAdjust: set factor to 0.644
ElecMinimize: Iter:   4  F: -21.745491940611934  |grad|_K:  1.474e-08  alpha:  3.997e-01  linmin:  1.965e-03  t[s]:   3692.29
	Linear fluid (dielectric constant: 78.4, screening length: 8.12261 Bohr) occupying 0.889951 of unit cell:	Completed after 2 iterations at t[s]:   3718.37
	Linear fluid (dielectric constant: 78.4, screening length: 8.12261 Bohr) occupying 0.889951 of unit cell:	Completed after 0 iterations at t[s]:   3741.68
	FillingsUpdate:  mu: -0.099722621  nElectrons: 10.000000  magneticMoment: [ Abs: 0.00000  Tot: -0.00000 ]
	SubspaceRotationAdjust: set factor to 0.396
ElecMinimize: Iter:   5  F: -21.745491952441640  |grad|_K:  8.087e-09  alpha:  2.628e-01  linmin: -6.699e-04  t[s]:   3784.81
ElecMinimize: Converged (|Delta F|<1.000000e-07 for 2 iters).
Setting wave functions to eigenvectors of Hamiltonian
Converging empty states (this may take a while): |deigs|: 1.704e-06

Computing DFT-D3 correction:
# coordination-number C 1.000
# coordination-number O 1.000
# diagonal-C6 C 43.07
# diagonal-C6 O 12.81
EvdW_6 =   -0.000009
EvdW_8 =   -0.000001
Completed 2 of 7 configurations.

Computing DFT-D3 correction:
# coordination-number C 1.000
# coordination-number O 1.000
# diagonal-C6 C 43.07
# diagonal-C6 O 12.81
EvdW_6 =   -0.000009
EvdW_8 =   -0.000001

-------- Electronic minimization -----------
	Linear fluid (dielectric constant: 78.4, screening length: 8.12261 Bohr) occupying 0.889949 of unit cell:	Completed after 7 iterations at t[s]:   3897.06
	FillingsUpdate:  mu: -0.099747502  nElectrons: 10.000000  magneticMoment: [ Abs: 0.00000  Tot: -0.00000 ]
ElecMinimize: Iter:   0  F: -21.745455260035563  |grad|_K:  4.048e-07  alpha:  1.000e+00
	Linear fluid (dielectric constant: 78.4, screening length: 8.12261 Bohr) occupying 0.889947 of unit cell:	Completed after 6 iterations at t[s]:   3966.58
	Linear fluid (dielectric constant: 78.4, screening length: 8.12261 Bohr) occupying 0.889948 of unit cell:	Completed after 4 iterations at t[s]:   3989.68
	FillingsUpdate:  mu: -0.099779345  nElectrons: 10.000000  magneticMoment: [ Abs: 0.00000  Tot: +0.00000 ]
	SubspaceRotationAdjust: set factor to 0.555
ElecMinimize: Iter:   1  F: -21.745485866891322  |grad|_K:  1.321e-07  alpha:  6.290e-01  linmin:  5.861e-05  t[s]:   4030.54
	Linear fluid (dielectric constant: 78.4, screening length: 8.12261 Bohr) occupying 0.889948 of unit cell:	Completed after 2 iterations at t[s]:   4055.24
	Linear fluid (dielectric constant: 78.4, screening length: 8.12261 Bohr) occupying 0.889948 of unit cell:	Completed after 2 iterations at t[s]:   4077.76
	FillingsUpdate:  mu: -0.099752175  nElectrons: 10.000000  magneticMoment: [ Abs: 0.00000  Tot: -0.00000 ]
	SubspaceRotationAdjust: set factor to 0.783
ElecMinimize: Iter:   2  F: -21.745490080702108  |grad|_K:  8.263e-08  alpha:  8.147e-01  linmin:  3.269e-05  t[s]:   4118.62
	Linear fluid (dielectric constant: 78.4, screening length: 8.12261 Bohr) occupying 0.889947 of unit cell:	Completed after 2 iterations at t[s]:   4143.24
	Linear fluid (dielectric constant: 78.4, screening length: 8.12261 Bohr) occupying 0.889947 of unit cell:	Completed after 0 iterations at t[s]:   4165.19
	FillingsUpdate:  mu: -0.099785192  nElectrons: 10.000000  magneticMoment: [ Abs: 0.00000  Tot: -0.00000 ]
	SubspaceRotationAdjust: set factor to 1.04
ElecMinimize: Iter:   3  F: -21.745491530327790  |grad|_K:  4.577e-08  alpha:  7.142e-01  linmin:  5.145e-04  t[s]:   4206.05
	Linear fluid (dielectric constant: 78.4, screening length: 8.12261 Bohr) occupying 0.889948 of unit cell:	Completed after 2 iterations at t[s]:   4230.73
	Linear fluid (dielectric constant: 78.4, screening length: 8.12261 Bohr) occupying 0.889948 of unit cell:	Completed after 1 iterations at t[s]:   4253.01
	FillingsUpdate:  mu: -0.099759587  nElectrons: 10.000000  magneticMoment: [ Abs: 0.00000  Tot: -0.00000 ]
	SubspaceRotationAdjust: set factor to 0.98
ElecMinimize: Iter:   4  F: -21.745491816927952  |grad|_K:  2.711e-08  alpha:  4.846e-01  linmin: -1.429e-04  t[s]:   4293.51
	Linear fluid (dielectric constant: 78.4, screening length: 8.12261 Bohr) occupying 0.889947 of unit cell:	Completed after 1 iterations at t[s]:   4318.05
	Linear fluid (dielectric constant: 78.4, screening length: 8.12261 Bohr) occupying 0.889947 of unit cell:	Completed after 0 iterations at t[s]:   4340.02
	FillingsUpdate:  mu: -0.099770824  nElectrons: 10.000000  magneticMoment: [ Abs: 0.00000  Tot: +0.00000 ]
	SubspaceRotationAdjust: set factor to 0.649
ElecMinimize: Iter:   5  F: -21.745491916162749  |grad|_K:  1.208e-08  alpha:  4.523e-01  linmin: -3.516e-06  t[s]:   4380.66
	Linear fluid (dielectric constant: 78.4, screening length: 8.12261 Bohr) occupying 0.889947 of unit cell:	Completed after 0 iterations at t[s]:   4404.75
	Linear fluid (dielectric constant: 78.4, screening length: 8.12261 Bohr) occupying 0.889947 of unit cell:	Completed after 0 iterations at t[s]:   4426.83
	FillingsUpdate:  mu: -0.099768169  nElectrons: 10.000000  magneticMoment: [ Abs: 0.00000  Tot: -0.00000 ]
	SubspaceRotationAdjust: set factor to 0.941
ElecMinimize: Iter:   6  F: -21.745491943483284  |grad|_K:  5.899e-09  alpha:  6.910e-01  linmin:  1.488e-03  t[s]:   4467.48
ElecMinimize: Converged (|Delta F|<1.000000e-07 for 2 iters).
Setting wave functions to eigenvectors of Hamiltonian
Converging empty states (this may take a while): |deigs|: 6.944e-07

Computing DFT-D3 correction:
# coordination-number C 1.000
# coordination-number O 1.000
# diagonal-C6 C 43.07
# diagonal-C6 O 12.81
EvdW_6 =   -0.000009
EvdW_8 =   -0.000001
Completed 3 of 7 configurations.

Computing DFT-D3 correction:
# coordination-number C 1.000
# coordination-number O 1.000
# diagonal-C6 C 43.07
# diagonal-C6 O 12.81
EvdW_6 =   -0.000009
EvdW_8 =   -0.000001

-------- Electronic minimization -----------
	Linear fluid (dielectric constant: 78.4, screening length: 8.12261 Bohr) occupying 0.890032 of unit cell:	Completed after 7 iterations at t[s]:   4576.71
	FillingsUpdate:  mu: -0.098508686  nElectrons: 10.000000  magneticMoment: [ Abs: 0.00000  Tot: +0.00000 ]
ElecMinimize: Iter:   0  F: -21.745377662754542  |grad|_K:  5.611e-07  alpha:  1.000e+00
	Linear fluid (dielectric constant: 78.4, screening length: 8.12261 Bohr) occupying 0.890106 of unit cell:	Completed after 8 iterations at t[s]:   4645.27
	Linear fluid (dielectric constant: 78.4, screening length: 8.12261 Bohr) occupying 0.890066 of unit cell:	Completed after 7 iterations at t[s]:   4668.46
	FillingsUpdate:  mu: -0.097907467  nElectrons: 10.000000  magneticMoment: [ Abs: 0.00000  Tot: +0.00000 ]
	SubspaceRotationAdjust: set factor to 0.704
ElecMinimize: Iter:   1  F: -21.745420866358636  |grad|_K:  2.725e-07  alpha:  4.631e-01  linmin:  3.486e-05  t[s]:   4708.83
	Linear fluid (dielectric constant: 78.4, screening length: 8.12261 Bohr) occupying 0.890070 of unit cell:	Completed after 6 iterations at t[s]:   4733.97
	Linear fluid (dielectric constant: 78.4, screening length: 8.12261 Bohr) occupying 0.890070 of unit cell:	Completed after 2 iterations at t[s]:   4756.35
	FillingsUpdate:  mu: -0.097918667  nElectrons: 10.000000  magneticMoment: [ Abs: 0.00000  Tot: -0.00000 ]
	SubspaceRotationAdjust: set factor to 0.596
ElecMinimize: Iter:   2  F: -21.745429600713315  |grad|_K:  1.018e-07  alpha:  3.970e-01  linmin:  5.384e-06  t[s]:   4796.73
	Linear fluid (dielectric constant: 78.4, screening length: 8.12261 Bohr) occupying 0.890072 of unit cell:	Completed after 2 iterations at t[s]:   4821.44
	Linear fluid (dielectric constant: 78.4, screening length: 8.12261 Bohr) occupying 0.890075 of unit cell:	Completed after 1 iterations at t[s]:   4843.59
	FillingsUpdate:  mu: -0.097920760  nElectrons: 10.000000  magneticMoment: [ Abs: 0.00000  Tot: +0.00000 ]
	SubspaceRotationAdjust: set factor to 0.663
ElecMinimize: Iter:   3  F: -21.745431801768948  |grad|_K:  4.215e-08  alpha:  7.159e-01  linmin: -3.036e-05  t[s]:   4884.00
	Linear fluid (dielectric constant: 78.4, screening length: 8.12261 Bohr) occupying 0.890075 of unit cell:	Completed after 1 iterations at t[s]:   4908.41
	Linear fluid (dielectric constant: 78.4, screening length: 8.12261 Bohr) occupying 0.890075 of unit cell:	Completed after 0 iterations at t[s]:   4930.21
	FillingsUpdate:  mu: -0.097943287  nElectrons: 10.000000  magneticMoment: [ Abs: 0.00000  Tot: +0.00000 ]
	SubspaceRotationAdjust: set factor to 0.664
ElecMinimize: Iter:   4  F: -21.745432120176751  |grad|_K:  1.680e-08  alpha:  6.026e-01  linmin:  2.226e-04  t[s]:   4970.64
	Linear fluid (dielectric constant: 78.4, screening length: 8.12261 Bohr) occupying 0.890075 of unit cell:	Completed after 2 iterations at t[s]:   4995.16
	Linear fluid (dielectric constant: 78.4, screening length: 8.12261 Bohr) occupying 0.890075 of unit cell:	Completed after 0 iterations at t[s]:   5016.97
	FillingsUpdate:  mu: -0.097940401  nElectrons: 10.000000  magneticMoment: [ Abs: 0.00000  Tot: -0.00000 ]
	SubspaceRotationAdjust: set factor to 0.586
ElecMinimize: Iter:   5  F: -21.745432166868262  |grad|_K:  9.412e-09  alpha:  5.653e-01  linmin: -1.054e-03  t[s]:   5057.40
	Linear fluid (dielectric constant: 78.4, screening length: 8.12261 Bohr) occupying 0.890075 of unit cell:	Completed after 0 iterations at t[s]:   5081.42
	Linear fluid (dielectric constant: 78.4, screening length: 8.12261 Bohr) occupying 0.890074 of unit cell:	Completed after 1 iterations at t[s]:   5103.56
	FillingsUpdate:  mu: -0.097933749  nElectrons: 10.000000  magneticMoment: [ Abs: 0.00000  Tot: -0.00000 ]
	SubspaceRotationAdjust: set factor to 0.544
ElecMinimize: Iter:   6  F: -21.745432182878588  |grad|_K:  6.006e-09  alpha:  8.196e-01  linmin:  4.856e-03  t[s]:   5143.96
ElecMinimize: Converged (|Delta F|<1.000000e-07 for 2 iters).
Setting wave functions to eigenvectors of Hamiltonian
Converging empty states (this may take a while): |deigs|: 3.616e-07

Computing DFT-D3 correction:
# coordination-number C 1.000
# coordination-number O 1.000
# diagonal-C6 C 43.07
# diagonal-C6 O 12.81
EvdW_6 =   -0.000009
EvdW_8 =   -0.000001
Completed 4 of 7 configurations.

Computing DFT-D3 correction:
# coordination-number C 1.000
# coordination-number O 1.000
# diagonal-C6 C 43.07
# diagonal-C6 O 12.81
EvdW_6 =   -0.000009
EvdW_8 =   -0.000001

-------- Electronic minimization -----------
	Linear fluid (dielectric constant: 78.4, screening length: 8.12261 Bohr) occupying 0.889986 of unit cell:	Completed after 7 iterations at t[s]:   5253.00
	FillingsUpdate:  mu: -0.099239046  nElectrons: 10.000000  magneticMoment: [ Abs: 0.00000  Tot: -0.00000 ]
ElecMinimize: Iter:   0  F: -21.745438667193824  |grad|_K:  5.325e-07  alpha:  1.000e+00
	Linear fluid (dielectric constant: 78.4, screening length: 8.12261 Bohr) occupying 0.889925 of unit cell:	Completed after 6 iterations at t[s]:   5321.13
	Linear fluid (dielectric constant: 78.4, screening length: 8.12261 Bohr) occupying 0.889955 of unit cell:	Completed after 6 iterations at t[s]:   5344.15
	FillingsUpdate:  mu: -0.099865771  nElectrons: 10.000000  magneticMoment: [ Abs: 0.00000  Tot: -0.00000 ]
	SubspaceRotationAdjust: set factor to 0.49
ElecMinimize: Iter:   1  F: -21.745481649810877  |grad|_K:  2.218e-07  alpha:  5.102e-01  linmin: -1.181e-05  t[s]:   5384.68
	Linear fluid (dielectric constant: 78.4, screening length: 8.12261 Bohr) occupying 0.889947 of unit cell:	Completed after 4 iterations at t[s]:   5409.44
	Linear fluid (dielectric constant: 78.4, screening length: 8.12261 Bohr) occupying 0.889947 of unit cell:	Completed after 0 iterations at t[s]:   5431.14
	FillingsUpdate:  mu: -0.099826919  nElectrons: 10.000000  magneticMoment: [ Abs: 0.00000  Tot: +0.00000 ]
	SubspaceRotationAdjust: set factor to 0.592
ElecMinimize: Iter:   2  F: -21.745489173257170  |grad|_K:  9.874e-08  alpha:  5.151e-01  linmin: -6.728e-05  t[s]:   5471.51
	Linear fluid (dielectric constant: 78.4, screening length: 8.12261 Bohr) occupying 0.889943 of unit cell:	Completed after 2 iterations at t[s]:   5496.05
	Linear fluid (dielectric constant: 78.4, screening length: 8.12261 Bohr) occupying 0.889941 of unit cell:	Completed after 2 iterations at t[s]:   5518.32
	FillingsUpdate:  mu: -0.099837290  nElectrons: 10.000000  magneticMoment: [ Abs: 0.00000  Tot: -0.00000 ]
	SubspaceRotationAdjust: set factor to 0.802
ElecMinimize: Iter:   3  F: -21.745491314547280  |grad|_K:  4.294e-08  alpha:  7.389e-01  linmin:  1.661e-05  t[s]:   5558.80
	Linear fluid (dielectric constant: 78.4, screening length: 8.12261 Bohr) occupying 0.889942 of unit cell:	Completed after 2 iterations at t[s]:   5583.30
	Linear fluid (dielectric constant: 78.4, screening length: 8.12261 Bohr) occupying 0.889942 of unit cell:	Completed after 0 iterations at t[s]:   5605.11
	FillingsUpdate:  mu: -0.099813707  nElectrons: 10.000000  magneticMoment: [ Abs: 0.00000  Tot: -0.00000 ]
	SubspaceRotationAdjust: set factor to 1.14
ElecMinimize: Iter:   4  F: -21.745491676026660  |grad|_K:  1.869e-08  alpha:  6.613e-01  linmin:  6.495e-05  t[s]:   5645.45
	Linear fluid (dielectric constant: 78.4, screening length: 8.12261 Bohr) occupying 0.889942 of unit cell:	Completed after 0 iterations at t[s]:   5669.40
	Linear fluid (dielectric constant: 78.4, screening length: 8.12261 Bohr) occupying 0.889943 of unit cell:	Completed after 0 iterations at t[s]:   5691.00
	FillingsUpdate:  mu: -0.099812402  nElectrons: 10.000000  magneticMoment: [ Abs: 0.00000  Tot: -0.00000 ]
	SubspaceRotationAdjust: set factor to 1.38
ElecMinimize: Iter:   5  F: -21.745491752983028  |grad|_K:  8.812e-09  alpha:  7.460e-01  linmin:  1.240e-06  t[s]:   5731.35
	Linear fluid (dielectric constant: 78.4, screening length: 8.12261 Bohr) occupying 0.889943 of unit cell:	Completed after 1 iterations at t[s]:   5755.71
	Linear fluid (dielectric constant: 78.4, screening length: 8.12261 Bohr) occupying 0.889943 of unit cell:	Completed after 0 iterations at t[s]:   5777.49
	FillingsUpdate:  mu: -0.099832136  nElectrons: 10.000000  magneticMoment: [ Abs: 0.00000  Tot: -0.00000 ]
	SubspaceRotationAdjust: set factor to 1.24
ElecMinimize: Iter:   6  F: -21.745491757885794  |grad|_K:  5.463e-09  alpha:  4.014e-01  linmin: -1.050e-03  t[s]:   5817.78
ElecMinimize: Converged (|Delta F|<1.000000e-07 for 2 iters).
Setting wave functions to eigenvectors of Hamiltonian
Converging empty states (this may take a while): |deigs|: 2.287e-07

Computing DFT-D3 correction:
# coordination-number C 1.000
# coordination-number O 1.000
# diagonal-C6 C 43.07
# diagonal-C6 O 12.81
EvdW_6 =   -0.000009
EvdW_8 =   -0.000001
Completed 5 of 7 configurations.

Computing DFT-D3 correction:
# coordination-number C 1.000
# coordination-number O 1.000
# diagonal-C6 C 43.07
# diagonal-C6 O 12.81
EvdW_6 =   -0.000009
EvdW_8 =   -0.000001

-------- Electronic minimization -----------
	Linear fluid (dielectric constant: 78.4, screening length: 8.12261 Bohr) occupying 0.889948 of unit cell:	Completed after 6 iterations at t[s]:   5926.70
	FillingsUpdate:  mu: -0.099771630  nElectrons: 10.000000  magneticMoment: [ Abs: 0.00000  Tot: +0.00000 ]
ElecMinimize: Iter:   0  F: -21.745460905874019  |grad|_K:  3.744e-07  alpha:  1.000e+00
	Linear fluid (dielectric constant: 78.4, screening length: 8.12261 Bohr) occupying 0.889947 of unit cell:	Completed after 4 iterations at t[s]:   5995.02
	Linear fluid (dielectric constant: 78.4, screening length: 8.12261 Bohr) occupying 0.889947 of unit cell:	Completed after 3 iterations at t[s]:   6017.72
	FillingsUpdate:  mu: -0.099768589  nElectrons: 10.000000  magneticMoment: [ Abs: 0.00000  Tot: +0.00000 ]
	SubspaceRotationAdjust: set factor to 1.57
ElecMinimize: Iter:   1  F: -21.745489421124052  |grad|_K:  1.071e-07  alpha:  6.855e-01  linmin:  3.130e-06  t[s]:   6058.64
	Linear fluid (dielectric constant: 78.4, screening length: 8.12261 Bohr) occupying 0.889948 of unit cell:	Completed after 2 iterations at t[s]:   6083.38
	Linear fluid (dielectric constant: 78.4, screening length: 8.12261 Bohr) occupying 0.889948 of unit cell:	Completed after 0 iterations at t[s]:   6105.62
	FillingsUpdate:  mu: -0.099762054  nElectrons: 10.000000  magneticMoment: [ Abs: 0.00000  Tot: +0.00000 ]
	SubspaceRotationAdjust: set factor to 1.39
ElecMinimize: Iter:   2  F: -21.745491474813889  |grad|_K:  5.308e-08  alpha:  6.032e-01  linmin:  2.997e-04  t[s]:   6146.38
	Linear fluid (dielectric constant: 78.4, screening length: 8.12261 Bohr) occupying 0.889946 of unit cell:	Completed after 3 iterations at t[s]:   6171.39
	Linear fluid (dielectric constant: 78.4, screening length: 8.12261 Bohr) occupying 0.889947 of unit cell:	Completed after 2 iterations at t[s]:   6193.69
	FillingsUpdate:  mu: -0.099775709  nElectrons: 10.000000  magneticMoment: [ Abs: 0.00000  Tot: +0.00000 ]
	SubspaceRotationAdjust: set factor to 0.916
ElecMinimize: Iter:   3  F: -21.745491740451158  |grad|_K:  3.732e-08  alpha:  3.363e-01  linmin:  2.848e-05  t[s]:   6234.30
	Linear fluid (dielectric constant: 78.4, screening length: 8.12261 Bohr) occupying 0.889947 of unit cell:	Completed after 2 iterations at t[s]:   6258.79
	Linear fluid (dielectric constant: 78.4, screening length: 8.12261 Bohr) occupying 0.889947 of unit cell:	Completed after 0 iterations at t[s]:   6280.78
	FillingsUpdate:  mu: -0.099769452  nElectrons: 10.000000  magneticMoment: [ Abs: 0.00000  Tot: +0.00000 ]
	SubspaceRotationAdjust: set factor to 1.62
ElecMinimize: Iter:   4  F: -21.745491915180061  |grad|_K:  1.453e-08  alpha:  4.177e-01  linmin: -2.651e-03  t[s]:   6321.44
	Linear fluid (dielectric constant: 78.4, screening length: 8.12261 Bohr) occupying 0.889948 of unit cell:	Completed after 1 iterations at t[s]:   6346.12
	Linear fluid (dielectric constant: 78.4, screening length: 8.12261 Bohr) occupying 0.889948 of unit cell:	Completed after 0 iterations at t[s]:   6368.03
	FillingsUpdate:  mu: -0.099767275  nElectrons: 10.000000  magneticMoment: [ Abs: 0.00000  Tot: +0.00000 ]
	SubspaceRotationAdjust: set factor to 1.4
ElecMinimize: Iter:   5  F: -21.745491937399585  |grad|_K:  1.355e-08  alpha:  3.551e-01  linmin: -2.999e-03  t[s]:   6408.54
	Linear fluid (dielectric constant: 78.4, screening length: 8.12261 Bohr) occupying 0.889947 of unit cell:	Completed after 1 iterations at t[s]:   6433.12
	Linear fluid (dielectric constant: 78.4, screening length: 8.12261 Bohr) occupying 0.889947 of unit cell:	Completed after 0 iterations at t[s]:   6455.01
	FillingsUpdate:  mu: -0.099768748  nElectrons: 10.000000  magneticMoment: [ Abs: 0.00000  Tot: -0.00000 ]
	SubspaceRotationAdjust: set factor to 2.34
ElecMinimize: Iter:   6  F: -21.745491956169019  |grad|_K:  6.538e-09  alpha:  3.169e-01  linmin: -2.082e-03  t[s]:   6495.51
ElecMinimize: Converged (|Delta F|<1.000000e-07 for 2 iters).
Setting wave functions to eigenvectors of Hamiltonian
Converging empty states (this may take a while): |deigs|: 1.407e-07

Computing DFT-D3 correction:
# coordination-number C 1.000
# coordination-number O 1.000
# diagonal-C6 C 43.07
# diagonal-C6 O 12.81
EvdW_6 =   -0.000009
EvdW_8 =   -0.000001
Completed 6 of 7 configurations.

Computing DFT-D3 correction:
# coordination-number C 1.000
# coordination-number O 1.000
# diagonal-C6 C 43.07
# diagonal-C6 O 12.81
EvdW_6 =   -0.000009
EvdW_8 =   -0.000001

-------- Electronic minimization -----------
	Linear fluid (dielectric constant: 78.4, screening length: 8.12261 Bohr) occupying 0.889847 of unit cell:	Completed after 6 iterations at t[s]:   6604.69
	FillingsUpdate:  mu: -0.100000000  nElectrons: 10.000000  magneticMoment: [ Abs: 0.00000  Tot: +0.00000 ]
ElecMinimize: Iter:   0  F: -21.745396512113480  |grad|_K:  4.440e-07  alpha:  1.000e+00
	Linear fluid (dielectric constant: 78.4, screening length: 8.12261 Bohr) occupying 0.889784 of unit cell:	Completed after 7 iterations at t[s]:   6673.10
	Linear fluid (dielectric constant: 78.4, screening length: 8.12261 Bohr) occupying 0.889815 of unit cell:	Completed after 6 iterations at t[s]:   6696.18
	FillingsUpdate:  mu: -0.100000000  nElectrons: 10.000000  magneticMoment: [ Abs: 0.00000  Tot: -0.00000 ]
	SubspaceRotationAdjust: set factor to 1.61
ElecMinimize: Iter:   1  F: -21.745426574176349  |grad|_K:  2.540e-07  alpha:  5.105e-01  linmin: -3.933e-05  t[s]:   6736.66
	Linear fluid (dielectric constant: 78.4, screening length: 8.12261 Bohr) occupying 0.889816 of unit cell:	Completed after 6 iterations at t[s]:   6761.99
	Linear fluid (dielectric constant: 78.4, screening length: 8.12261 Bohr) occupying 0.889815 of unit cell:	Completed after 6 iterations at t[s]:   6785.16
	FillingsUpdate:  mu: -0.100000000  nElectrons: 10.000000  magneticMoment: [ Abs: 0.00000  Tot: -0.00000 ]
	SubspaceRotationAdjust: set factor to 0.976
ElecMinimize: Iter:   2  F: -21.745430352058371  |grad|_K:  1.268e-07  alpha:  1.966e-01  linmin: -2.207e-05  t[s]:   6825.60
	Linear fluid (dielectric constant: 78.4, screening length: 8.12261 Bohr) occupying 0.889821 of unit cell:	Completed after 2 iterations at t[s]:   6850.21
	Linear fluid (dielectric constant: 78.4, screening length: 8.12261 Bohr) occupying 0.889832 of unit cell:	Completed after 3 iterations at t[s]:   6872.84
	FillingsUpdate:  mu: -0.100000000  nElectrons: 10.000000  magneticMoment: [ Abs: 0.00000  Tot: -0.00000 ]
	SubspaceRotationAdjust: set factor to 1.38
ElecMinimize: Iter:   3  F: -21.745433050968895  |grad|_K:  5.732e-08  alpha:  5.626e-01  linmin: -4.448e-05  t[s]:   6913.40
	Linear fluid (dielectric constant: 78.4, screening length: 8.12261 Bohr) occupying 0.889829 of unit cell:	Completed after 2 iterations at t[s]:   6938.02
	Linear fluid (dielectric constant: 78.4, screening length: 8.12261 Bohr) occupying 0.889829 of unit cell:	Completed after 0 iterations at t[s]:   6960.10
	FillingsUpdate:  mu: -0.100000000  nElectrons: 10.000000  magneticMoment: [ Abs: 0.00000  Tot: +0.00000 ]
	SubspaceRotationAdjust: set factor to 1.15
ElecMinimize: Iter:   4  F: -21.745433603109529  |grad|_K:  3.945e-08  alpha:  5.631e-01  linmin: -3.865e-05  t[s]:   7000.63
	Linear fluid (dielectric constant: 78.4, screening length: 8.12261 Bohr) occupying 0.889818 of unit cell:	Completed after 2 iterations at t[s]:   7025.20
	Linear fluid (dielectric constant: 78.4, screening length: 8.12261 Bohr) occupying 0.889823 of unit cell:	Completed after 2 iterations at t[s]:   7047.64
	FillingsUpdate:  mu: -0.100000000  nElectrons: 10.000000  magneticMoment: [ Abs: 0.00000  Tot: +0.00000 ]
	SubspaceRotationAdjust: set factor to 0.923
ElecMinimize: Iter:   5  F: -21.745433753023537  |grad|_K:  1.686e-08  alpha:  3.244e-01  linmin:  2.031e-04  t[s]:   7088.15
	Linear fluid (dielectric constant: 78.4, screening length: 8.12261 Bohr) occupying 0.889821 of unit cell:	Completed after 0 iterations at t[s]:   7112.27
	Linear fluid (dielectric constant: 78.4, screening length: 8.12261 Bohr) occupying 0.889819 of unit cell:	Completed after 1 iterations at t[s]:   7134.24
	FillingsUpdate:  mu: -0.100000000  nElectrons: 10.000000  magneticMoment: [ Abs: 0.00000  Tot: -0.00000 ]
	SubspaceRotationAdjust: set factor to 0.956
ElecMinimize: Iter:   6  F: -21.745433806404414  |grad|_K:  8.039e-09  alpha:  7.304e-01  linmin:  5.160e-04  t[s]:   7174.74
	Linear fluid (dielectric constant: 78.4, screening length: 8.12261 Bohr) occupying 0.889819 of unit cell:	Completed after 0 iterations at t[s]:   7198.86
	Linear fluid (dielectric constant: 78.4, screening length: 8.12261 Bohr) occupying 0.889819 of unit cell:	Completed after 0 iterations at t[s]:   7220.77
	FillingsUpdate:  mu: -0.100000000  nElectrons: 10.000000  magneticMoment: [ Abs: 0.00000  Tot: +0.00000 ]
	SubspaceRotationAdjust: set factor to 1.22
ElecMinimize: Iter:   7  F: -21.745433820363470  |grad|_K:  4.088e-09  alpha:  7.922e-01  linmin: -7.835e-07  t[s]:   7261.25
ElecMinimize: Converged (|Delta F|<1.000000e-07 for 2 iters).
Setting wave functions to eigenvectors of Hamiltonian
Converging empty states (this may take a while): |deigs|: 1.222e-07

Computing DFT-D3 correction:
# coordination-number C 1.000
# coordination-number O 1.000
# diagonal-C6 C 43.07
# diagonal-C6 O 12.81
EvdW_6 =   -0.000009
EvdW_8 =   -0.000001
Completed 7 of 7 configurations.

Relative symmetry error in force matrix = 0.0168698
2 imaginary modes, 1 modes within cutoff, 3 real modes.

Imaginary mode 1:
Frequency: 0.001007i Eh [ 221i cm^-1 ]
Degeneracy: 1 of 1
IR intensity: 0.0001 e^2/amu [ 0.1 km/mol ]
Displacements:
disp C  -0.000437259518590  -0.002568493986177  -0.003868296437657
disp O  -0.001318224406871  -0.000889227211571  -0.003928036207301

Imaginary mode 2:
Frequency: 0.000482i Eh [ 106i cm^-1 ]
Degeneracy: 1 of 1
IR intensity: 0.0001 e^2/amu [ 0.1 km/mol ]
Displacements:
disp C  -0.003334482623589  -0.001906296006593   0.001136941082059
disp O  -0.003938433331605   0.002314768502317   0.001171583666923

Zero mode 1:
Frequency: 0.000068 Eh [ 15 cm^-1 ]
Degeneracy: 1 of 1
IR intensity: 0.0002 e^2/amu [ 0.2 km/mol ]
Displacements:
disp C   0.000024303845982  -0.002562186664005  -0.000397355979447
disp O   0.003216069056078   0.004317396460719  -0.000507194037709

Real mode 1:
Frequency: 0.000208 Eh [ 46 cm^-1 ]
Degeneracy: 1 of 1
IR intensity: 0.0001 e^2/amu [ 0.1 km/mol ]
Displacements:
disp C  -0.004754961639489   0.004079821862272  -0.001150173948667
disp O   0.001277013626887   0.000650648102441  -0.001330885320029

Real mode 2:
Frequency: 0.000615 Eh [ 135 cm^-1 ]
Degeneracy: 1 of 1
IR intensity: 0.0001 e^2/amu [ 0.1 km/mol ]
Displacements:
disp C   0.003425369530622   0.003497433491401  -0.001192096028617
disp O  -0.002247909678126   0.003012538521509  -0.001049361761493

Real mode 3:
Frequency: 0.009924 Eh [ 2178 cm^-1 ]
Degeneracy: 1 of 1
IR intensity: 0.1161 e^2/amu [ 113.2 km/mol ]
Displacements:
disp C  -0.000140535604576  -0.000014629538162  -0.005149261172179
disp O   0.000107690837469   0.000003187419698   0.003788904002566

Vibrational free energy components at T = 298 K:
	ZPE:          0.005374
	Evib:         0.006887
	TSvib:        0.003737
	Avib:         0.003149


Dumping 'jdft.n_up' ... done
Dumping 'jdft.n_dn' ... done
Dumping 'jdft.tau_up' ... done
Dumping 'jdft.tau_dn' ... done
Dumping 'jdft.eigenvals' ... done
Dumping 'jdft.eigStats' ... 
	eMin: -1.059844 at state 200 ( [ -0.428571 +0.000000 -0.428571 ] spin 1 )
	HOMO: -0.324701 at state 172 ( [ +0.428571 +0.428571 -0.428571 ] spin 1 )
	mu  : -0.100000
	LUMO: -0.069340 at state 32 ( [ +0.000000 -0.428571 -0.428571 ] spin 1 )
	eMax: +0.093020 at state 343 ( [ +0.000000 +0.000000 +0.000000 ] spin -1 )
	HOMO-LUMO gap: +0.255360
	Optical gap  : +0.255361 at state 32 ( [ +0.000000 -0.428571 -0.428571 ] spin 1 )
Dumping 'jdft.kPts' ... done
Dumping 'jdft.dosUp' ... done.
Dumping 'jdft.dosDn' ... done.
End date and time: Thu Nov 10 15:42:29 2022  (Duration: 0-2:03:26.61)
Done!

PROFILER:             augmentDensityGrid     0.626209 +/-     0.572973 s,  284 calls,    177.843266 s total
PROFILER:         augmentDensityGridGrad     0.046097 +/-     0.011581 s,  166 calls,      7.652151 s total
PROFILER:        augmentDensitySpherical     0.000044 +/-     0.000012 s, 10792 calls,      0.480185 s total
PROFILER:    augmentDensitySphericalGrad     0.000042 +/-     0.000010 s, 8302 calls,      0.352198 s total
PROFILER:                 augmentOverlap     0.030842 +/-     0.007465 s, 23292 calls,    718.381692 s total
PROFILER:        ColumnBundle::randomize     0.009964 +/-     0.000173 s,   38 calls,      0.378649 s total
PROFILER:                     diagouterI     0.431504 +/-     0.012364 s, 5510 calls,   2377.585007 s total
PROFILER:              EdensityAndVscloc     1.386988 +/-     0.914615 s,  143 calls,    198.339251 s total
PROFILER:                     EnlAndGrad     0.000019 +/-     0.000008 s, 12254 calls,      0.233325 s total
PROFILER:            ExCorrCommunication     0.015626 +/-     0.019523 s,  937 calls,     14.641139 s total
PROFILER:               ExCorrFunctional     0.007971 +/-     0.001978 s,  165 calls,      1.315173 s total
PROFILER:                    ExCorrTotal     0.163466 +/-     0.075493 s,  165 calls,     26.971939 s total
PROFILER:                   Idag_DiagV_I     0.823261 +/-     0.098891 s, 3885 calls,   3198.369145 s total
PROFILER:                    initWeights     1.793028 +/-     0.000000 s,    1 calls,      1.793028 s total
PROFILER:                    inv(matrix)     0.000012 +/-     0.000009 s, 4788 calls,      0.056048 s total
PROFILER:            matrix::diagonalize     0.000098 +/-     0.000038 s, 8978 calls,      0.884160 s total
PROFILER:                    matrix::set     0.000000 +/-     0.000001 s, 26134 calls,      0.008915 s total
PROFILER:            orthoMatrix(matrix)     0.000018 +/-     0.000011 s, 5557 calls,      0.099436 s total
PROFILER:     RadialFunctionR::transform     0.007898 +/-     0.034367 s,   64 calls,      0.505448 s total
PROFILER:                    reduceKmesh     0.000000 +/-     0.000000 s,    1 calls,      0.000000 s total
PROFILER:   VanDerWaalsD3::energyAndGrad     0.000238 +/-     0.000043 s,   15 calls,      0.003566 s total
PROFILER:               WavefunctionDrag     6.075142 +/-     0.050299 s,    7 calls,     42.525993 s total
PROFILER:                            Y*M     0.003045 +/-     0.000874 s, 54878 calls,    167.112944 s total
PROFILER:                          Y1^Y2     0.003803 +/-     0.001085 s, 38984 calls,    148.260957 s total

MEMUSAGE:                   ColumnBundle     0.991869 GB
MEMUSAGE:        complexScalarFieldTilde     0.015259 GB
MEMUSAGE:                    IndexArrays     0.294698 GB
MEMUSAGE:                         matrix     0.002254 GB
MEMUSAGE:                           misc     0.015493 GB
MEMUSAGE:                    ScalarField     0.122070 GB
MEMUSAGE:               ScalarFieldTilde     0.082111 GB
MEMUSAGE:                          Total     1.456434 GB
