
*************** JDFTx 1.7.0 (git hash 5f12716a) ***************

Start date and time: Wed Nov  9 13:08:52 2022
Executable /home/nisi6161/jdftx_alpine/build/jdftx with command-line: -i in
Running on hosts (process indices):  c3cpu-a2-u1-1.rc.int.colorado.edu (0-17)
Divided in process groups (process indices):  0 (0)  1 (1)  2 (2)  3 (3)  4 (4)  5 (5)  6 (6)  7 (7)  8 (8)  9 (9)  10 (10)  11 (11)  12 (12)  13 (13)  14 (14)  15 (15)  16 (16)  17 (17)
Resource initialization completed at t[s]:      0.07
Run totals: 18 processes, 64 threads, 0 GPUs


Input parsed successfully to the following command list (including defaults):

basis kpoint-dependent
converge-empty-states yes
coords-type Cartesian
core-overlap-check none
coulomb-interaction Periodic
davidson-band-ratio 1.1
density-of-states Etol 1.000000e-06 Esigma 1.000000e-03 \
		Complete \
	Total \
	OrthoOrbital C 1   s \
	OrthoOrbital C 1   p \
	OrthoOrbital C 1   px \
	OrthoOrbital C 1   py \
	OrthoOrbital C 1   pz \
	OrthoOrbital C 2   s \
	OrthoOrbital C 2   p \
	OrthoOrbital C 2   px \
	OrthoOrbital C 2   py \
	OrthoOrbital C 2   pz \
	OrthoOrbital C 3   s \
	OrthoOrbital C 3   p \
	OrthoOrbital C 3   px \
	OrthoOrbital C 3   py \
	OrthoOrbital C 3   pz \
	OrthoOrbital C 4   s \
	OrthoOrbital C 4   p \
	OrthoOrbital C 4   px \
	OrthoOrbital C 4   py \
	OrthoOrbital C 4   pz \
	OrthoOrbital C 5   s \
	OrthoOrbital C 5   p \
	OrthoOrbital C 5   px \
	OrthoOrbital C 5   py \
	OrthoOrbital C 5   pz \
	OrthoOrbital C 6   s \
	OrthoOrbital C 6   p \
	OrthoOrbital C 6   px \
	OrthoOrbital C 6   py \
	OrthoOrbital C 6   pz \
	OrthoOrbital C 7   s \
	OrthoOrbital C 7   p \
	OrthoOrbital C 7   px \
	OrthoOrbital C 7   py \
	OrthoOrbital C 7   pz \
	OrthoOrbital C 8   s \
	OrthoOrbital C 8   p \
	OrthoOrbital C 8   px \
	OrthoOrbital C 8   py \
	OrthoOrbital C 8   pz \
	OrthoOrbital C 9   s \
	OrthoOrbital C 9   p \
	OrthoOrbital C 9   px \
	OrthoOrbital C 9   py \
	OrthoOrbital C 9   pz \
	OrthoOrbital C 10   s \
	OrthoOrbital C 10   p \
	OrthoOrbital C 10   px \
	OrthoOrbital C 10   py \
	OrthoOrbital C 10   pz \
	OrthoOrbital C 11   s \
	OrthoOrbital C 11   p \
	OrthoOrbital C 11   px \
	OrthoOrbital C 11   py \
	OrthoOrbital C 11   pz \
	OrthoOrbital C 12   s \
	OrthoOrbital C 12   p \
	OrthoOrbital C 12   px \
	OrthoOrbital C 12   py \
	OrthoOrbital C 12   pz \
	OrthoOrbital C 13   s \
	OrthoOrbital C 13   p \
	OrthoOrbital C 13   px \
	OrthoOrbital C 13   py \
	OrthoOrbital C 13   pz \
	OrthoOrbital C 14   s \
	OrthoOrbital C 14   p \
	OrthoOrbital C 14   px \
	OrthoOrbital C 14   py \
	OrthoOrbital C 14   pz \
	OrthoOrbital C 15   s \
	OrthoOrbital C 15   p \
	OrthoOrbital C 15   px \
	OrthoOrbital C 15   py \
	OrthoOrbital C 15   pz \
	OrthoOrbital C 16   s \
	OrthoOrbital C 16   p \
	OrthoOrbital C 16   px \
	OrthoOrbital C 16   py \
	OrthoOrbital C 16   pz \
	OrthoOrbital C 17   s \
	OrthoOrbital C 17   p \
	OrthoOrbital C 17   px \
	OrthoOrbital C 17   py \
	OrthoOrbital C 17   pz \
	OrthoOrbital C 18   s \
	OrthoOrbital C 18   p \
	OrthoOrbital C 18   px \
	OrthoOrbital C 18   py \
	OrthoOrbital C 18   pz \
	OrthoOrbital C 19   s \
	OrthoOrbital C 19   p \
	OrthoOrbital C 19   px \
	OrthoOrbital C 19   py \
	OrthoOrbital C 19   pz \
	OrthoOrbital C 20   s \
	OrthoOrbital C 20   p \
	OrthoOrbital C 20   px \
	OrthoOrbital C 20   py \
	OrthoOrbital C 20   pz \
	OrthoOrbital C 21   s \
	OrthoOrbital C 21   p \
	OrthoOrbital C 21   px \
	OrthoOrbital C 21   py \
	OrthoOrbital C 21   pz \
	OrthoOrbital C 22   s \
	OrthoOrbital C 22   p \
	OrthoOrbital C 22   px \
	OrthoOrbital C 22   py \
	OrthoOrbital C 22   pz \
	OrthoOrbital C 23   s \
	OrthoOrbital C 23   p \
	OrthoOrbital C 23   px \
	OrthoOrbital C 23   py \
	OrthoOrbital C 23   pz \
	OrthoOrbital C 24   s \
	OrthoOrbital C 24   p \
	OrthoOrbital C 24   px \
	OrthoOrbital C 24   py \
	OrthoOrbital C 24   pz \
	OrthoOrbital C 25   s \
	OrthoOrbital C 25   p \
	OrthoOrbital C 25   px \
	OrthoOrbital C 25   py \
	OrthoOrbital C 25   pz \
	OrthoOrbital C 26   s \
	OrthoOrbital C 26   p \
	OrthoOrbital C 26   px \
	OrthoOrbital C 26   py \
	OrthoOrbital C 26   pz \
	OrthoOrbital C 27   s \
	OrthoOrbital C 27   p \
	OrthoOrbital C 27   px \
	OrthoOrbital C 27   py \
	OrthoOrbital C 27   pz \
	OrthoOrbital C 28   s \
	OrthoOrbital C 28   p \
	OrthoOrbital C 28   px \
	OrthoOrbital C 28   py \
	OrthoOrbital C 28   pz \
	OrthoOrbital C 29   s \
	OrthoOrbital C 29   p \
	OrthoOrbital C 29   px \
	OrthoOrbital C 29   py \
	OrthoOrbital C 29   pz \
	OrthoOrbital C 30   s \
	OrthoOrbital C 30   p \
	OrthoOrbital C 30   px \
	OrthoOrbital C 30   py \
	OrthoOrbital C 30   pz \
	OrthoOrbital C 31   s \
	OrthoOrbital C 31   p \
	OrthoOrbital C 31   px \
	OrthoOrbital C 31   py \
	OrthoOrbital C 31   pz \
	OrthoOrbital C 32   s \
	OrthoOrbital C 32   p \
	OrthoOrbital C 32   px \
	OrthoOrbital C 32   py \
	OrthoOrbital C 32   pz \
	OrthoOrbital C 33   s \
	OrthoOrbital C 33   p \
	OrthoOrbital C 33   px \
	OrthoOrbital C 33   py \
	OrthoOrbital C 33   pz \
	OrthoOrbital C 34   s \
	OrthoOrbital C 34   p \
	OrthoOrbital C 34   px \
	OrthoOrbital C 34   py \
	OrthoOrbital C 34   pz \
	OrthoOrbital C 35   s \
	OrthoOrbital C 35   p \
	OrthoOrbital C 35   px \
	OrthoOrbital C 35   py \
	OrthoOrbital C 35   pz \
	OrthoOrbital C 36   s \
	OrthoOrbital C 36   p \
	OrthoOrbital C 36   px \
	OrthoOrbital C 36   py \
	OrthoOrbital C 36   pz \
	OrthoOrbital C 37   s \
	OrthoOrbital C 37   p \
	OrthoOrbital C 37   px \
	OrthoOrbital C 37   py \
	OrthoOrbital C 37   pz \
	OrthoOrbital C 38   s \
	OrthoOrbital C 38   p \
	OrthoOrbital C 38   px \
	OrthoOrbital C 38   py \
	OrthoOrbital C 38   pz \
	OrthoOrbital C 39   s \
	OrthoOrbital C 39   p \
	OrthoOrbital C 39   px \
	OrthoOrbital C 39   py \
	OrthoOrbital C 39   pz \
	OrthoOrbital C 40   s \
	OrthoOrbital C 40   p \
	OrthoOrbital C 40   px \
	OrthoOrbital C 40   py \
	OrthoOrbital C 40   pz \
	OrthoOrbital C 41   s \
	OrthoOrbital C 41   p \
	OrthoOrbital C 41   px \
	OrthoOrbital C 41   py \
	OrthoOrbital C 41   pz \
	OrthoOrbital C 42   s \
	OrthoOrbital C 42   p \
	OrthoOrbital C 42   px \
	OrthoOrbital C 42   py \
	OrthoOrbital C 42   pz \
	OrthoOrbital C 43   s \
	OrthoOrbital C 43   p \
	OrthoOrbital C 43   px \
	OrthoOrbital C 43   py \
	OrthoOrbital C 43   pz \
	OrthoOrbital C 44   s \
	OrthoOrbital C 44   p \
	OrthoOrbital C 44   px \
	OrthoOrbital C 44   py \
	OrthoOrbital C 44   pz \
	OrthoOrbital C 45   s \
	OrthoOrbital C 45   p \
	OrthoOrbital C 45   px \
	OrthoOrbital C 45   py \
	OrthoOrbital C 45   pz \
	OrthoOrbital N 1   s \
	OrthoOrbital N 1   p \
	OrthoOrbital N 1   px \
	OrthoOrbital N 1   py \
	OrthoOrbital N 1   pz \
	OrthoOrbital N 2   s \
	OrthoOrbital N 2   p \
	OrthoOrbital N 2   px \
	OrthoOrbital N 2   py \
	OrthoOrbital N 2   pz \
	OrthoOrbital N 3   s \
	OrthoOrbital N 3   p \
	OrthoOrbital N 3   px \
	OrthoOrbital N 3   py \
	OrthoOrbital N 3   pz \
	OrthoOrbital N 4   s \
	OrthoOrbital N 4   p \
	OrthoOrbital N 4   px \
	OrthoOrbital N 4   py \
	OrthoOrbital N 4   pz \
	OrthoOrbital Ti 1   s \
	OrthoOrbital Ti 1   p \
	OrthoOrbital Ti 1   px \
	OrthoOrbital Ti 1   py \
	OrthoOrbital Ti 1   pz \
	OrthoOrbital Ti 1   d \
	OrthoOrbital Ti 1   dxy \
	OrthoOrbital Ti 1   dyz \
	OrthoOrbital Ti 1   dz2 \
	OrthoOrbital Ti 1   dxz \
	OrthoOrbital Ti 1   dx2-y2 \
	OrthoOrbital O 1   s \
	OrthoOrbital O 1   p \
	OrthoOrbital O 1   px \
	OrthoOrbital O 1   py \
	OrthoOrbital O 1   pz \
	OrthoOrbital O 2   s \
	OrthoOrbital O 2   p \
	OrthoOrbital O 2   px \
	OrthoOrbital O 2   py \
	OrthoOrbital O 2   pz \
	OrthoOrbital O 3   s \
	OrthoOrbital O 3   p \
	OrthoOrbital O 3   px \
	OrthoOrbital O 3   py \
	OrthoOrbital O 3   pz \
	OrthoOrbital H 1   s \
	OrthoOrbital H 2   s
dump End ElecDensity KEdensity BandEigs EigStats RhoAtom DOS Kpoints
dump Ionic State IonicPositions Lattice EigStats Ecomponents
dump 
dump 
dump 
dump 
dump 
dump 
dump 
dump 
dump-name jdft.$VAR
elec-cutoff 20
elec-eigen-algo Davidson
elec-ex-corr gga-PBE
elec-initial-magnetization 0.000000 no
elec-n-bands 140
elec-smearing Fermi 0.001
electronic-minimize  \
	dirUpdateScheme      FletcherReeves \
	linminMethod         DirUpdateRecommended \
	nIterations          100 \
	history              15 \
	knormThreshold       0 \
	energyDiffThreshold  1e-07 \
	nEnergyDiff          2 \
	alphaTstart          1 \
	alphaTmin            1e-10 \
	updateTestStepSize   yes \
	alphaTreduceFactor   0.1 \
	alphaTincreaseFactor 3 \
	nAlphaAdjustMax      3 \
	wolfeEnergy          0.0001 \
	wolfeGradient        0.9 \
	fdTest               no
exchange-regularization WignerSeitzTruncated
fluid LinearPCM 298.000000 1.013250
fluid-anion F- 0.5 MeanFieldLJ \
	epsBulk 1 \
	pMol 0 \
	epsInf 1 \
	Pvap 0 \
	sigmaBulk 0 \
	Rvdw 2.24877 \
	Res 0 \
	tauNuc 343133
fluid-cation Na+ 0.5 MeanFieldLJ \
	epsBulk 1 \
	pMol 0 \
	epsInf 1 \
	Pvap 0 \
	sigmaBulk 0 \
	Rvdw 2.19208 \
	Res 0 \
	tauNuc 343133
fluid-ex-corr lda-TF lda-PZ
fluid-gummel-loop 10 1.000000e-05
fluid-minimize  \
	dirUpdateScheme      PolakRibiere \
	linminMethod         DirUpdateRecommended \
	nIterations          400 \
	history              15 \
	knormThreshold       1e-11 \
	energyDiffThreshold  0 \
	nEnergyDiff          2 \
	alphaTstart          1 \
	alphaTmin            1e-10 \
	updateTestStepSize   yes \
	alphaTreduceFactor   0.1 \
	alphaTincreaseFactor 3 \
	nAlphaAdjustMax      6 \
	wolfeEnergy          0.0001 \
	wolfeGradient        0.9 \
	fdTest               no
fluid-solvent H2O 55.338 ScalarEOS \
	epsBulk 78.4 \
	pMol 0.92466 \
	epsInf 1.77 \
	Pvap 1.06736e-10 \
	sigmaBulk 4.62e-05 \
	Rvdw 2.61727 \
	Res 1.42 \
	tauNuc 343133 \
	poleEl 15 7 1
forces-output-coords Positions
ion C  -0.006629000000000   0.086462000000000   0.066225000000000 0
ion C  21.041717000000002   4.047446000000000   0.040618000000000 0
ion C  18.696421000000001   8.049503000000001  43.194370000000006 0
ion C  -7.052327000000001  12.049771000000002  43.186108000000004 0
ion C  -9.379807000000001  16.060960000000005   0.018600000000000 0
ion C   4.677783000000001   0.188775000000000   0.085994000000000 0
ion C   2.290360000000001   4.205644000000001   0.166407000000000 0
ion C  -0.120284000000002   8.035195000000002   0.108098000000000 0
ion C  -2.440612000000002  12.041561000000003  43.251079000000004 0
ion C  -4.732503999999999  16.066981999999999   0.007959000000000 0
ion C   9.368092000000003   0.086956000000000   0.028290000000000 0
ion C   7.080417000000001   4.192124000000001   0.107059000000000 0
ion C  -0.038839000000001  15.975639000000001   0.059521000000000 0
ion C   2.340768999999998  19.934001000000006   0.041483000000000 0
ion C  11.755046000000002   4.032595000000000  43.240568000000010 0
ion C   9.468431999999998   8.022347000000000   0.035686000000000 0
ion C   4.664227000000000  15.835325000000003   0.159140000000000 0
ion C   6.990288000000001  19.939326000000005   0.061078000000000 0
ion C  16.398098000000005   4.019620000000001  43.227331000000007 0
ion C  14.089897999999998   8.041836000000002  43.177586000000005 0
ion C  11.770991000000002  12.044552000000001  43.255188000000004 0
ion C   9.364776000000001  15.980625000000002   0.071979000000000 0
ion C  -0.017468000000000   2.770901000000000   0.084047000000000 0
ion C  -2.424756000000000   6.701267000000000   0.014318000000000 0
ion C  -4.747752000000001  10.702045000000002  43.189093000000007 0
ion C  -7.054628000000000  14.724840000000002  43.235896000000004 0
ion C  -9.379973000000001  18.748300000000000   0.062981000000000 0
ion C   4.679677000000000   2.909076000000001   0.146250000000000 0
ion C  -0.129239000000001  10.722050000000001   0.098538000000000 0
ion C  -2.411657000000002  14.710849000000001   0.017865000000000 0
ion C  -4.729727000000000  18.751911000000003   0.045981000000000 0
ion C   9.383437000000001   2.764513000000000   0.021109000000000 0
ion C   2.264409000000001  14.541185000000004   0.159789000000000 0
ion C  -0.022265000000001  18.654574000000004   0.035903000000000 0
ion C  14.076079000000000   2.677060000000000  43.247013000000010 0
ion C  11.782149000000004   6.702319000000001  43.219805000000008 0
ion C   9.464701000000002  10.712518000000001   0.063890000000000 0
ion C   7.057474000000001  14.547938000000002   0.146898000000000 0
ion C   4.665991999999999  18.555646000000003   0.087724000000000 0
ion C  18.723908999999999   2.684539000000001   0.018211000000000 0
ion C  16.395468999999999   6.694370000000001  43.180571000000008 0
ion C  14.083534000000000  10.713012000000004  43.188747000000006 0
ion C  11.738811000000004  14.716765000000002   0.030323000000000 0
ion C   9.352812999999999  18.663348000000003   0.063933000000000 0
ion C   4.954959999999999   8.322933000000003   5.416209000000001 1
ion N   2.145568999999998  11.955962000000003   0.257678000000000 0
ion N   7.176758000000001  11.948413000000004   0.207111000000000 0
ion N   2.174494000000000   6.810399000000002   0.266156000000000 0
ion N   7.191687000000000   6.776783000000001   0.170127000000000 0
ion Ti   4.723401000000001   9.356509000000003   1.683665000000000 0
ion O   4.072404999999998  10.645992000000003   5.189633000000001 1
ion O   5.307300000000001   7.179800000000001   7.443806000000001 1
ion O   7.217999000000001   2.454011000000000   6.753608000000001 1
ion H   6.431770000000001   4.179037000000001   6.861662000000001 1
ion H   5.806239000000001   1.318262000000000   6.364691000000001 1
ion-species /projects/musgravc/apps/jdftx-1.6.0/build/pseudopotentials/GBRV_v1.5/$ID_pbe_v1.uspp
ion-species /projects/musgravc/apps/jdftx-1.6.0/build/pseudopotentials/GBRV_v1.5/$ID_pbe_v1.2.uspp
ion-species /projects/musgravc/apps/jdftx-1.6.0/build/pseudopotentials/GBRV_v1.5/$ID_pbe_v1.4.uspp
ion-species /projects/musgravc/apps/jdftx-1.6.0/build/pseudopotentials/GBRV_v1.5/$ID_pbe_v1.5.uspp
ion-width Ecut
ionic-minimize  \
	dirUpdateScheme      L-BFGS \
	linminMethod         DirUpdateRecommended \
	nIterations          100 \
	history              15 \
	knormThreshold       0.0001 \
	energyDiffThreshold  1e-06 \
	nEnergyDiff          2 \
	alphaTstart          1 \
	alphaTmin            1e-10 \
	updateTestStepSize   yes \
	alphaTreduceFactor   0.1 \
	alphaTincreaseFactor 1 \
	nAlphaAdjustMax      1 \
	wolfeEnergy          0.0001 \
	wolfeGradient        0.9 \
	fdTest               no
kpoint   0.000000000000   0.000000000000   0.000000000000  1.00000000000000
kpoint-folding 3 3 1 
latt-move-scale 0 0 0
latt-scale 1 1 1 
lattice  \
	  23.436261999999999  -11.733459000000000    0.000000000000000  \
	   0.017994000000000   19.941849000000001    0.000000000000000  \
	   0.000000000000000    0.000000000000000   43.256312999999999 
lattice-minimize  \
	dirUpdateScheme      L-BFGS \
	linminMethod         DirUpdateRecommended \
	nIterations          0 \
	history              15 \
	knormThreshold       0 \
	energyDiffThreshold  1e-06 \
	nEnergyDiff          2 \
	alphaTstart          1 \
	alphaTmin            1e-10 \
	updateTestStepSize   yes \
	alphaTreduceFactor   0.1 \
	alphaTincreaseFactor 3 \
	nAlphaAdjustMax      3 \
	wolfeEnergy          0.0001 \
	wolfeGradient        0.9 \
	fdTest               no
lcao-params 30 1e-06 0.001
pcm-variant CANDLE
spintype z-spin
subspace-rotation-factor 1 yes
symmetries none
symmetry-threshold 0.0001
target-mu -0.1455 no

van-der-waals D3
vibrations \
	dr 0.01\
	centralDiff no\
	useConstraints yes\
	translationSym yes\
	rotationSym no\
	omegaMin 0.0002\
	T 298\
	omegaResolution 0.0001


Applied RMS atom displacement 0 bohrs to make symmetries exact.
Applied RMS atom displacement 0 bohrs to make symmetries exact.

---------- Initializing the Grid ----------
R = 
[      23.4363     -11.7335            0  ]
[     0.017994      19.9418            0  ]
[            0            0      43.2563  ]
unit cell volume = 20225.5
G =
[   0.267976   0.157673         -0  ]
[ -0.000241801   0.314933          0  ]
[          0         -0   0.145255  ]
Minimum fftbox size, Smin = [  96  96  176  ]
Chosen fftbox size, S = [  96  96  180  ]

---------- Exchange Correlation functional ----------
Initalized PBE GGA exchange.
Initalized PBE GGA correlation.

---------- Setting up pseudopotentials ----------
Width of ionic core gaussian charges (only for fluid interactions / plotting) set to 0.397384

Reading pseudopotential file '/projects/musgravc/apps/jdftx-1.6.0/build/pseudopotentials/GBRV_v1.5/c_pbe_v1.2.uspp':
  Title: C.  Created by USPP 7.3.6 on 3-2-2014
  Reference state energy: -5.406344.  4 valence electrons in orbitals:
    |200>  occupation: 2  eigenvalue: -0.504890
    |210>  occupation: 2  eigenvalue: -0.194356
  lMax: 1  lLocal: 2  QijEcut: 5
  4 projectors sampled on a log grid with 503 points:
    l: 0  eig: -0.504890  rCut: 1.3
    l: 0  eig: 0.000000  rCut: 1.3
    l: 1  eig: -0.194357  rCut: 1.3
    l: 1  eig: 0.000000  rCut: 1.3
  Partial core density with radius 1.1
  Transforming core density to a uniform radial grid of dG=0.02 with 1464 points.
  Transforming local potential to a uniform radial grid of dG=0.02 with 1464 points.
  Transforming nonlocal projectors to a uniform radial grid of dG=0.02 with 432 points.
  Transforming density augmentations to a uniform radial grid of dG=0.02 with 1464 points.
  Transforming atomic orbitals to a uniform radial grid of dG=0.02 with 432 points.
  Core radius for overlap checks: 1.30 bohrs.

Reading pseudopotential file '/projects/musgravc/apps/jdftx-1.6.0/build/pseudopotentials/GBRV_v1.5/n_pbe_v1.2.uspp':
  Title: N.  Created by USPP 7.3.6 on 3-2-2014
  Reference state energy: -9.763716.  5 valence electrons in orbitals:
    |200>  occupation: 2  eigenvalue: -0.681964
    |210>  occupation: 3  eigenvalue: -0.260726
  lMax: 1  lLocal: 2  QijEcut: 6
  4 projectors sampled on a log grid with 491 points:
    l: 0  eig: -0.681964  rCut: 1.15
    l: 0  eig: 0.000000  rCut: 1.15
    l: 1  eig: -0.260729  rCut: 1.2
    l: 1  eig: 0.500000  rCut: 1.2
  Partial core density with radius 0.8
  Transforming core density to a uniform radial grid of dG=0.02 with 1464 points.
  Transforming local potential to a uniform radial grid of dG=0.02 with 1464 points.
  Transforming nonlocal projectors to a uniform radial grid of dG=0.02 with 432 points.
  Transforming density augmentations to a uniform radial grid of dG=0.02 with 1464 points.
  Transforming atomic orbitals to a uniform radial grid of dG=0.02 with 432 points.
  Core radius for overlap checks: 1.20 bohrs.

Reading pseudopotential file '/projects/musgravc/apps/jdftx-1.6.0/build/pseudopotentials/GBRV_v1.5/ti_pbe_v1.4.uspp':
  Title: Ti.  Created by USPP 7.3.6 on 31-3-15
  Reference state energy: -59.020943.  12 valence electrons in orbitals:
    |300>  occupation: 2  eigenvalue: -2.777623
    |310>  occupation: 6  eigenvalue: -1.894596
    |400>  occupation: 2  eigenvalue: -0.438610
    |320>  occupation: 1  eigenvalue: -0.583119
  lMax: 2  lLocal: 3  QijEcut: 6
  6 projectors sampled on a log grid with 597 points:
    l: 0  eig: -2.777624  rCut: 1.8
    l: 0  eig: -0.438611  rCut: 1.8
    l: 1  eig: -1.894596  rCut: 1.8
    l: 1  eig: 0.500000  rCut: 1.8
    l: 2  eig: -0.583118  rCut: 1.8
    l: 2  eig: 0.150000  rCut: 1.8
  Partial core density with radius 0.8
  Transforming core density to a uniform radial grid of dG=0.02 with 1464 points.
  Transforming local potential to a uniform radial grid of dG=0.02 with 1464 points.
  Transforming nonlocal projectors to a uniform radial grid of dG=0.02 with 432 points.
  Transforming density augmentations to a uniform radial grid of dG=0.02 with 1464 points.
  Transforming atomic orbitals to a uniform radial grid of dG=0.02 with 432 points.
  Core radius for overlap checks: 1.80 bohrs.

Reading pseudopotential file '/projects/musgravc/apps/jdftx-1.6.0/build/pseudopotentials/GBRV_v1.5/o_pbe_v1.2.uspp':
  Title: O.  Created by USPP 7.3.6 on 3-2-2014
  Reference state energy: -15.894388.  6 valence electrons in orbitals:
    |200>  occupation: 2  eigenvalue: -0.878823
    |210>  occupation: 4  eigenvalue: -0.332131
  lMax: 2  lLocal: 2  QijEcut: 6
  5 projectors sampled on a log grid with 511 points:
    l: 0  eig: -0.878823  rCut: 1.25
    l: 0  eig: 0.000000  rCut: 1.25
    l: 1  eig: -0.332132  rCut: 1.25
    l: 1  eig: 0.000000  rCut: 1.25
    l: 2  eig: 1.000000  rCut: 1.25
  Partial core density with radius 0.7
  Transforming core density to a uniform radial grid of dG=0.02 with 1464 points.
  Transforming local potential to a uniform radial grid of dG=0.02 with 1464 points.
  Transforming nonlocal projectors to a uniform radial grid of dG=0.02 with 432 points.
  Transforming density augmentations to a uniform radial grid of dG=0.02 with 1464 points.
  Transforming atomic orbitals to a uniform radial grid of dG=0.02 with 432 points.
  Core radius for overlap checks: 1.25 bohrs.

Reading pseudopotential file '/projects/musgravc/apps/jdftx-1.6.0/build/pseudopotentials/GBRV_v1.5/h_pbe_v1.4.uspp':
  Title: H.  Created by USPP 7.3.6 on 2-4-15
  Reference state energy: -0.458849.  1 valence electrons in orbitals:
    |100>  occupation: 1  eigenvalue: -0.238595
  lMax: 0  lLocal: 1  QijEcut: 6
  2 projectors sampled on a log grid with 395 points:
    l: 0  eig: -0.238595  rCut: 1.2
    l: 0  eig: 1.000000  rCut: 1.2
  Transforming local potential to a uniform radial grid of dG=0.02 with 1464 points.
  Transforming nonlocal projectors to a uniform radial grid of dG=0.02 with 432 points.
  Transforming density augmentations to a uniform radial grid of dG=0.02 with 1464 points.
  Transforming atomic orbitals to a uniform radial grid of dG=0.02 with 432 points.
  Core radius for overlap checks: 1.20 bohrs.

Initialized 5 species with 55 total atoms.

Folded 1 k-points by 3x3x1 to 9 k-points.

---------- Setting up k-points, bands, fillings ----------
No reducable k-points. 
Computing the number of bands and number of electrons
Calculating initial fillings.
nElectrons: 232.000000   nBands: 140   nStates: 18

----- Setting up reduced wavefunction bases (one per k-point) -----
average nbasis = 86412.556 , ideal nbasis = 86404.907

----- Initializing Supercell corresponding to k-point mesh -----
Lattice vector linear combinations in supercell:
[   3   0   0  ]
[   0   3   0  ]
[   0   0   1  ]
Supercell lattice vectors:
[  70.3088  -35.2004  0  ]
[  0.053982  59.8255  0  ]
[  0  0  43.2563  ]

Initializing DFT-D3 calculator:
	Parameters set for gga-PBE functional
	s6:  1.000  s_r6:  1.217
	s8:  0.722  s_r8:  1.000
	Per-atom parameters loaded for:
	 C:  sqrtQ[a0]:  3.105  Rcov[a0]:  1.417  CN: [ 0.00 0.99 2.00 3.00 3.98 ]
	 N:  sqrtQ[a0]:  2.712  Rcov[a0]:  1.342  CN: [ 0.00 0.99 2.01 2.99 ]
	Ti:  sqrtQ[a0]:  6.288  Rcov[a0]:  2.305  CN: [ 0.00 1.83 3.87 ]
	 O:  sqrtQ[a0]:  2.594  Rcov[a0]:  1.191  CN: [ 0.00 0.99 1.99 ]
	 H:  sqrtQ[a0]:  2.007  Rcov[a0]:  0.605  CN: [ 0.91 0.00 ]

Initializing DFT-D2 calculator for fluid / solvation:
	 C:  C6:   30.35 Eh-a0^6  R0: 2.744 a0
	 N:  C6:   21.33 Eh-a0^6  R0: 2.640 a0
	Ti:  C6:  187.33 Eh-a0^6  R0: 2.952 a0
	 O:  C6:   12.14 Eh-a0^6  R0: 2.536 a0
	 H:  C6:    2.43 Eh-a0^6  R0: 1.892 a0

---------- Setting up ewald sum ----------
Optimum gaussian width for ewald sums = 5.573775 bohr.
Real space sum over 567 unit cells with max indices [  4  4  3  ]
Reciprocal space sum over 7803 terms with max indices [  8  8  13  ]

Computing DFT-D3 correction:
# coordination-number C 3.300 3.321 3.334 3.332 3.313 3.291 3.325 3.580 3.330 3.314 3.303 3.332 3.304 3.301 3.324 3.621 3.267 3.301 3.320 3.334 3.327 3.302 3.301 3.326 3.335 3.320 3.301 3.269 3.571 3.324 3.302 3.306 3.323 3.302 3.314 3.329 3.622 3.325 3.290 3.313 3.332 3.334 3.321 3.300 3.000
# coordination-number N 3.177 3.177 3.176 3.182
# coordination-number Ti 7.489
# coordination-number O 1.996 1.052 1.982
# coordination-number H 1.002 0.993
# diagonal-C6 C 24.28 24.07 23.93 23.95 24.16 24.37 24.03 20.53 23.97 24.14 24.25 23.95 24.24 24.27 24.03 20.04 24.58 24.28 24.08 23.93 24.01 24.27 24.28 24.01 23.92 24.08 24.28 24.56 20.64 24.03 24.26 24.23 24.05 24.26 24.15 23.98 20.03 24.02 24.38 24.16 23.95 23.93 24.07 24.28 25.67
# diagonal-C6 N 15.60 15.60 15.60 15.60
# diagonal-C6 Ti 321.59
# diagonal-C6 O 10.41 12.77 10.41
# diagonal-C6 H 3.09 3.09
EvdW_6 =   -0.044050
EvdW_8 =   -0.033536

---------- Allocating electronic variables ----------
Initializing wave functions:  linear combination of atomic orbitals
C pseudo-atom occupations:   s ( 2 )  p ( 2 )
N pseudo-atom occupations:   s ( 2 )  p ( 3 )
Ti pseudo-atom occupations:   s ( 2 0 )  p ( 6 )  d ( 4 )
O pseudo-atom occupations:   s ( 2 )  p ( 4 )
H pseudo-atom occupations:   s ( 1 )
	FillingsUpdate:  mu: -0.145500000  nElectrons: 232.000000  magneticMoment: [ Abs: 0.00444  Tot: +0.00000 ]
LCAOMinimize: Iter:   0  G: -365.0364376344080597  |grad|_K:  4.236e-03  alpha:  1.000e+00
	FillingsUpdate:  mu: -0.145500000  nElectrons: 232.000000  magneticMoment: [ Abs: 0.00436  Tot: -0.00000 ]
LCAOMinimize: Iter:   1  G: -366.4991817741182558  |grad|_K:  1.522e-03  alpha:  1.218e-01  linmin: -1.458e-01  cgtest:  1.763e+00  t[s]:    323.18
LCAOMinimize: Encountered beta<0, resetting CG.
LCAOMinimize: 	Wrong curvature in test step, increasing alphaT to 3.654191e-01.
	FillingsUpdate:  mu: -0.145500000  nElectrons: 232.000000  magneticMoment: [ Abs: 0.00457  Tot: -0.00034 ]
LCAOMinimize: Iter:   2  G: -366.7984917682627497  |grad|_K:  1.397e-03  alpha: -2.958e-01  linmin: -8.203e-02  cgtest:  8.331e-01  t[s]:    448.90
	FillingsUpdate:  mu: -0.145500000  nElectrons: 232.000000  magneticMoment: [ Abs: 0.00468  Tot: -0.00045 ]
LCAOMinimize: Iter:   3  G: -366.8493220484299400  |grad|_K:  1.319e-03  alpha:  2.786e-02  linmin: -1.144e-01  cgtest:  9.705e-01  t[s]:    577.60
LCAOMinimize: Encountered beta<0, resetting CG.
LCAOMinimize: 	Wrong curvature in test step, increasing alphaT to 8.359023e-02.
	FillingsUpdate:  mu: -0.145500000  nElectrons: 232.000000  magneticMoment: [ Abs: 0.00483  Tot: -0.00060 ]
LCAOMinimize: Iter:   4  G: -366.8931905367873583  |grad|_K:  1.305e-03  alpha: -4.864e-01  linmin: -8.717e-02  cgtest:  9.440e-01  t[s]:    703.67
	FillingsUpdate:  mu: -0.145500000  nElectrons: 232.000000  magneticMoment: [ Abs: 0.00502  Tot: -0.00080 ]
LCAOMinimize: Iter:   5  G: -366.9333270688669586  |grad|_K:  1.258e-03  alpha:  2.554e-02  linmin: -1.377e-01  cgtest:  9.470e-01  t[s]:    832.14
LCAOMinimize: 	Wrong curvature in test step, increasing alphaT to 7.662631e-02.
	FillingsUpdate:  mu: -0.145500000  nElectrons: 232.000000  magneticMoment: [ Abs: 0.00523  Tot: -0.00102 ]
LCAOMinimize: Iter:   6  G: -366.9698790259214434  |grad|_K:  1.243e-03  alpha: -1.264e+00  linmin: -1.936e-01  cgtest:  9.578e-01  t[s]:    958.06
	FillingsUpdate:  mu: -0.145500000  nElectrons: 232.000000  magneticMoment: [ Abs: 0.00544  Tot: -0.00124 ]
LCAOMinimize: Iter:   7  G: -367.0047020759217276  |grad|_K:  1.237e-03  alpha:  2.442e-02  linmin: -1.990e-01  cgtest:  9.603e-01  t[s]:   1087.07
LCAOMinimize: 	Wrong curvature in test step, increasing alphaT to 7.326946e-02.
	FillingsUpdate:  mu: -0.145500000  nElectrons: 232.000000  magneticMoment: [ Abs: 0.00569  Tot: -0.00150 ]
LCAOMinimize: Iter:   8  G: -367.0394633283624444  |grad|_K:  1.233e-03  alpha: -6.097e-01  linmin: -2.030e-01  cgtest:  9.577e-01  t[s]:   1215.16
	FillingsUpdate:  mu: -0.145500000  nElectrons: 232.000000  magneticMoment: [ Abs: 0.00598  Tot: -0.00181 ]
LCAOMinimize: Iter:   9  G: -367.0751577173340365  |grad|_K:  1.231e-03  alpha:  2.505e-02  linmin: -2.070e-01  cgtest:  9.542e-01  t[s]:   1347.04
LCAOMinimize: 	Wrong curvature in test step, increasing alphaT to 7.515029e-02.
	FillingsUpdate:  mu: -0.145500000  nElectrons: 232.000000  magneticMoment: [ Abs: 0.00633  Tot: -0.00216 ]
LCAOMinimize: Iter:  10  G: -367.1109577228693297  |grad|_K:  1.229e-03  alpha: -5.163e-01  linmin: -2.108e-01  cgtest:  9.519e-01  t[s]:   1476.93
	FillingsUpdate:  mu: -0.145500000  nElectrons: 232.000000  magneticMoment: [ Abs: 0.00673  Tot: -0.00258 ]
LCAOMinimize: Iter:  11  G: -367.1474662927282111  |grad|_K:  1.227e-03  alpha:  2.549e-02  linmin: -2.145e-01  cgtest:  9.492e-01  t[s]:   1609.84
LCAOMinimize: 	Wrong curvature in test step, increasing alphaT to 7.646236e-02.
	FillingsUpdate:  mu: -0.145500000  nElectrons: 232.000000  magneticMoment: [ Abs: 0.00720  Tot: -0.00306 ]
LCAOMinimize: Iter:  12  G: -367.1840186558664527  |grad|_K:  1.225e-03  alpha: -4.798e-01  linmin: -2.174e-01  cgtest:  9.475e-01  t[s]:   1739.65
	FillingsUpdate:  mu: -0.145500000  nElectrons: 232.000000  magneticMoment: [ Abs: 0.00773  Tot: -0.00361 ]
LCAOMinimize: Iter:  13  G: -367.2207988539491339  |grad|_K:  1.221e-03  alpha:  2.570e-02  linmin: -2.187e-01  cgtest:  9.455e-01  t[s]:   1871.64
LCAOMinimize: 	Wrong curvature in test step, increasing alphaT to 7.710612e-02.
	FillingsUpdate:  mu: -0.145500000  nElectrons: 232.000000  magneticMoment: [ Abs: 0.00833  Tot: -0.00424 ]
LCAOMinimize: Iter:  14  G: -367.2573793288926254  |grad|_K:  1.215e-03  alpha: -4.714e-01  linmin: -2.160e-01  cgtest:  9.436e-01  t[s]:   2000.78
	FillingsUpdate:  mu: -0.145500000  nElectrons: 232.000000  magneticMoment: [ Abs: 0.00900  Tot: -0.00492 ]
LCAOMinimize: Iter:  15  G: -367.2935937003363733  |grad|_K:  1.209e-03  alpha:  2.564e-02  linmin: -2.033e-01  cgtest:  9.400e-01  t[s]:   2132.78
LCAOMinimize: 	Wrong curvature in test step, increasing alphaT to 7.692248e-02.
	FillingsUpdate:  mu: -0.145500000  nElectrons: 232.000000  magneticMoment: [ Abs: 0.00969  Tot: -0.00564 ]
LCAOMinimize: Iter:  16  G: -367.3300275134281492  |grad|_K:  1.220e-03  alpha: -3.149e-01  linmin: -1.715e-01  cgtest:  9.209e-01  t[s]:   2262.36
	FillingsUpdate:  mu: -0.145500000  nElectrons: 232.000000  magneticMoment: [ Abs: 0.01003  Tot: -0.00600 ]
LCAOMinimize: Iter:  17  G: -367.3738866314372444  |grad|_K:  1.222e-03  alpha:  2.711e-02  linmin: -1.575e-01  cgtest:  8.736e-01  t[s]:   2394.06
LCAOMinimize: 	Step increased G by 1.564640e-02, reducing alpha to 8.062143e-03.
	FillingsUpdate:  mu: -0.145500000  nElectrons: 232.000000  magneticMoment: [ Abs: 0.01006  Tot: -0.00602 ]
LCAOMinimize: Iter:  18  G: -367.3861039182775130  |grad|_K:  1.162e-03  alpha:  8.062e-03  linmin: -1.813e-01  cgtest:  9.594e-01  t[s]:   2624.54
LCAOMinimize: Encountered beta<0, resetting CG.
LCAOMinimize: 	Predicted alpha/alphaT>3.000000, increasing alphaT to 2.418643e-02.
LCAOMinimize: 	Predicted alpha/alphaT>3.000000, increasing alphaT to 7.255929e-02.
	FillingsUpdate:  mu: -0.145500000  nElectrons: 232.000000  magneticMoment: [ Abs: 0.00724  Tot: -0.00284 ]
LCAOMinimize: Iter:  19  G: -367.4157362896598329  |grad|_K:  5.149e-03  alpha:  2.011e-01  linmin:  8.102e-03  cgtest: -1.518e-01  t[s]:   2824.11
LCAOMinimize: 	Step increased G by 1.014230e-03, reducing alpha to 8.381457e-05.
	FillingsUpdate:  mu: -0.145500000  nElectrons: 232.000000  magneticMoment: [ Abs: 0.00726  Tot: -0.00286 ]
LCAOMinimize: Iter:  20  G: -367.4158395954663661  |grad|_K:  5.160e-03  alpha:  8.381e-05  linmin: -3.588e-04  cgtest:  1.000e+00  t[s]:   3054.51
LCAOMinimize: 	Predicted alpha/alphaT>3.000000, increasing alphaT to 2.514437e-04.
LCAOMinimize: 	Predicted alpha/alphaT>3.000000, increasing alphaT to 7.543311e-04.
LCAOMinimize: 	Predicted alpha/alphaT>3.000000, increasing alphaT to 2.262993e-03.
	FillingsUpdate:  mu: -0.145500000  nElectrons: 232.000000  magneticMoment: [ Abs: 0.00835  Tot: -0.00410 ]
LCAOMinimize: Iter:  21  G: -367.5514555067951505  |grad|_K:  2.694e-03  alpha:  7.970e-03  linmin: -5.125e-02  cgtest:  9.610e-01  t[s]:   3254.13
LCAOMinimize: Encountered beta<0, resetting CG.
	FillingsUpdate:  mu: -0.145500000  nElectrons: 232.000000  magneticMoment: [ Abs: 0.01533  Tot: -0.01136 ]
LCAOMinimize: Iter:  22  G: -367.5977032271978260  |grad|_K:  7.839e-04  alpha:  1.960e-02  linmin:  6.064e-02  cgtest: -9.255e-01  t[s]:   3385.79
LCAOMinimize: 	Predicted alpha/alphaT>3.000000, increasing alphaT to 5.879525e-02.
	FillingsUpdate:  mu: -0.145500000  nElectrons: 232.000000  magneticMoment: [ Abs: 0.02206  Tot: -0.01834 ]
LCAOMinimize: Iter:  23  G: -367.6097973051162171  |grad|_K:  6.475e-04  alpha:  1.538e-01  linmin:  1.026e-03  cgtest:  9.465e-01  t[s]:   3551.07
LCAOMinimize: Encountered beta<0, resetting CG.
	FillingsUpdate:  mu: -0.145500000  nElectrons: 232.000000  magneticMoment: [ Abs: 0.02125  Tot: -0.01748 ]
LCAOMinimize: Iter:  24  G: -367.6151849508705709  |grad|_K:  1.561e-04  alpha:  1.779e-02  linmin: -3.288e-01  cgtest:  5.778e-01  t[s]:   3683.01
LCAOMinimize: Encountered beta<0, resetting CG.
	FillingsUpdate:  mu: -0.145500000  nElectrons: 232.000000  magneticMoment: [ Abs: 0.02259  Tot: -0.01880 ]
LCAOMinimize: Iter:  25  G: -367.6155231339539569  |grad|_K:  1.480e-04  alpha:  3.045e-02  linmin: -9.094e-03  cgtest:  1.566e-01  t[s]:   3815.65
	FillingsUpdate:  mu: -0.145500000  nElectrons: 232.000000  magneticMoment: [ Abs: 0.03053  Tot: -0.02670 ]
LCAOMinimize: Iter:  26  G: -367.6162780659624332  |grad|_K:  6.761e-05  alpha:  6.090e-02  linmin: -7.399e-02  cgtest:  3.143e-01  t[s]:   3948.18
	FillingsUpdate:  mu: -0.145500000  nElectrons: 232.000000  magneticMoment: [ Abs: 0.03645  Tot: -0.03257 ]
LCAOMinimize: Iter:  27  G: -367.6163893191092029  |grad|_K:  7.771e-05  alpha:  5.293e-02  linmin: -2.792e-02  cgtest:  4.408e-01  t[s]:   4080.63
	FillingsUpdate:  mu: -0.145500000  nElectrons: 232.000000  magneticMoment: [ Abs: 0.04720  Tot: -0.04323 ]
LCAOMinimize: Iter:  28  G: -367.6165501740005084  |grad|_K:  7.840e-05  alpha:  4.572e-02  linmin: -1.933e-02  cgtest: -1.252e-01  t[s]:   4212.78
	FillingsUpdate:  mu: -0.145500000  nElectrons: 232.000000  magneticMoment: [ Abs: 0.06672  Tot: -0.06242 ]
LCAOMinimize: Iter:  29  G: -367.6167266143078791  |grad|_K:  4.331e-05  alpha:  4.313e-02  linmin: -7.265e-02  cgtest:  5.996e-01  t[s]:   4344.49
LCAOMinimize: Encountered beta<0, resetting CG.
LCAOMinimize: 	Wrong curvature in test step, increasing alphaT to 1.293773e-01.
	FillingsUpdate:  mu: -0.145500000  nElectrons: 232.000000  magneticMoment: [ Abs: 0.07829  Tot: -0.07388 ]
LCAOMinimize: Iter:  30  G: -367.6168143696468178  |grad|_K:  4.160e-05  alpha: -9.219e-02  linmin: -9.878e-02  cgtest:  9.691e-01  t[s]:   4473.68
LCAOMinimize: Encountered beta<0, resetting CG.
LCAOMinimize: None of the convergence criteria satisfied after 30 iterations.
----- createFluidSolver() ----- (Fluid-side solver setup)
   Initializing fluid molecule 'H2O'
     Initializing site 'O'
       Electron density: proportional to exp(-r/0.36935)*erfc((r-0.51523)/0.36823) with norm 6.826
       Charge density: gaussian nuclear width 0.478731 with net site charge 0.826
       Polarizability: cuspless exponential with width 0.32 and norm 3.73
       Hard sphere radius: 2.57003 bohrs
       Positions in reference frame:
         [ +0.000000 +0.000000 +0.000000 ]
     Initializing site 'H'
       Electron density: proportional to exp(-r/0.34641)*erfc((r-0)/0.390882) with norm 0.587
       Charge density: gaussian nuclear width 0.377945 with net site charge -0.413
       Polarizability: cuspless exponential with width 0.39 and norm 3.3
       Positions in reference frame:
         [ +0.000000 -1.441945 +1.122523 ]
         [ +0.000000 +1.441945 +1.122523 ]
     Net charge: 0   dipole magnitude: 0.927204
     Initializing spherical shell mfKernel with radius 2.61727 Bohr
     deltaS corrections:
       site 'O': -7.54299
       site 'H': -6.83917
   Initializing fluid molecule 'Na+'
     Initializing site 'Na'
       Electron density: proportional to exp(-r/0.19682)*erfc((r-0.71491)/0.41314) with norm 8.1383
       Charge density: gaussian nuclear width 0.365347 with net site charge -1
       Hard sphere radius: 1.86327 bohrs
       Positions in reference frame:
         [ +0.000000 +0.000000 +0.000000 ]
     Net charge: -1   dipole magnitude: 0
     Initializing gaussian mfKernel with width: 1.55004 Bohr
     deltaS corrections:
       site 'Na': -22.3555
   Initializing fluid molecule 'F-'
     Initializing site 'F'
       Electron density: proportional to exp(-r/0.38886)*erfc((r-0)/0.438782) with norm 8
       Charge density: gaussian nuclear width 0.374796 with net site charge 1
       Hard sphere radius: 2.39995 bohrs
       Positions in reference frame:
         [ +0.000000 +0.000000 +0.000000 ]
     Net charge: 1   dipole magnitude: 0
     Initializing gaussian mfKernel with width: 1.59012 Bohr
     deltaS corrections:
       site 'F': -9.04335

Correction to mu due to finite nuclear width = -0.0113812
   Cavity determined by nc: 0.00142 and sigma: 0.707107
   Nonlocal vdW cavity from gaussian model electron density with norm = 8 and sigma = 0.993594 bohr
   Charge asymmetry in cavity with sensitivity pCavity = 36.5 e-bohr/Eh
   Electrostatic cavity expanded by eta = 1.46 bohrs
   Weighted density cavitation model constrained by Nbulk: 0.0049383 bohr^-3, Pvap: 3.14029 kPa, Rvdw: 2.61727 bohr and sigmaBulk: 4.62e-05 Eh/bohr^2 at T: 298 K.
   Weighted density dispersion model using vdW pair potentials with single solvent site with sqrtC6eff: 0.77 SI.
WARNING: Vibrations: switching off translationSym and rotationSym since useConstraints is on.

---- Citations for features of the code used in this run ----

   Software package:
      R. Sundararaman, K. Letchworth-Weaver, K.A. Schwarz, D. Gunceler, Y. Ozhabes and T.A. Arias, 'JDFTx: software for joint density-functional theory', SoftwareX 6, 278 (2017)

   gga-PBE exchange-correlation functional:
      J.P. Perdew, K. Burke and M. Ernzerhof, Phys. Rev. Lett. 77, 3865 (1996)

   Pseudopotentials:
      KF Garrity, JW Bennett, KM Rabe and D Vanderbilt, Comput. Mater. Sci. 81, 446 (2014)

   DFT-D3 dispersion correction:
      S. Grimme, J. Antony, S. Ehrlich and H. Krieg, J. Chem. Phys. 132, 154104 (2010)

   DFT-D2 dispersion correction:
      S. Grimme, J. Comput. Chem. 27, 1787 (2006)

   Charge-asymmetric nonlocally-determined local-electric (CANDLE) solvation model:
      R. Sundararaman and W.A. Goddard III, J. Chem. Phys. 142, 064107 (2015)

   Total energy minimization with Auxiliary Hamiltonian:
      C. Freysoldt, S. Boeck, and J. Neugebauer, Phys. Rev. B 79, 241103(R) (2009)

   Grand-canonical (fixed-potential) DFT:
      R. Sundararaman, W. A. Goddard III and T. A. Arias, J. Chem. Phys. 146, 114104 (2017)

   Linear-tetrahedron sampling for density of states:
      G. Lehmann and M. Taut, Phys. status solidi (b) 54, 469 (1972)

This list may not be complete. Please suggest additional citations or
report any other bugs at https://github.com/shankar1729/jdftx/issues

Initialization completed successfully at t[s]:   4491.44

------ Vibrations::calculate() -------
WARNING: Vibrations module is experimental. Please report bugs!
Compare results with and without symmetries and report discrepancies.
Degrees of freedom: 18 total, 18 symmetry-independent.

Computing DFT-D3 correction:
# coordination-number C 3.300 3.321 3.334 3.332 3.313 3.291 3.325 3.580 3.330 3.314 3.303 3.332 3.304 3.301 3.324 3.621 3.267 3.301 3.320 3.334 3.327 3.302 3.301 3.326 3.335 3.320 3.301 3.269 3.571 3.324 3.302 3.306 3.323 3.302 3.314 3.329 3.622 3.325 3.290 3.313 3.332 3.334 3.321 3.300 3.000
# coordination-number N 3.177 3.177 3.176 3.182
# coordination-number Ti 7.489
# coordination-number O 1.996 1.052 1.982
# coordination-number H 1.002 0.993
# diagonal-C6 C 24.28 24.07 23.93 23.95 24.16 24.37 24.03 20.53 23.97 24.14 24.25 23.95 24.24 24.27 24.03 20.04 24.58 24.28 24.08 23.93 24.01 24.27 24.28 24.01 23.92 24.08 24.28 24.56 20.64 24.03 24.26 24.23 24.05 24.26 24.15 23.98 20.03 24.02 24.38 24.16 23.95 23.93 24.07 24.28 25.67
# diagonal-C6 N 15.60 15.60 15.60 15.60
# diagonal-C6 Ti 321.59
# diagonal-C6 O 10.41 12.77 10.41
# diagonal-C6 H 3.09 3.09
EvdW_6 =   -0.044050
EvdW_8 =   -0.033536
Fluid solver invoked on fresh (random / LCAO) wavefunctions
Running a vacuum solve first:

-------- Initial electronic minimization -----------
	FillingsUpdate:  mu: -0.209575657  nElectrons: 232.000000  magneticMoment: [ Abs: 0.07829  Tot: -0.07388 ]
ElecMinimize: Iter:   0  G: -367.617596417509901  |grad|_K:  1.445e-04  alpha:  1.000e+00
	FillingsUpdate:  mu: -0.133437155  nElectrons: 232.000000  magneticMoment: [ Abs: 0.25275  Tot: -0.24607 ]
	SubspaceRotationAdjust: set factor to 1
ElecMinimize: Iter:   1  G: -370.671105712021017  |grad|_K:  5.639e-05  alpha:  6.794e-01  linmin:  8.966e-05  t[s]:   4704.00
	FillingsUpdate:  mu: -0.082038530  nElectrons: 232.000000  magneticMoment: [ Abs: 0.02317  Tot: -0.00334 ]
	SubspaceRotationAdjust: set factor to 0.952
ElecMinimize: Iter:   2  G: -370.818329486630432  |grad|_K:  3.226e-05  alpha:  1.951e-01  linmin: -1.584e-03  t[s]:   4833.37
	FillingsUpdate:  mu: -0.101457393  nElectrons: 232.000000  magneticMoment: [ Abs: 0.21417  Tot: -0.20828 ]
	SubspaceRotationAdjust: set factor to 0.631
ElecMinimize: Iter:   3  G: -370.948820960480077  |grad|_K:  3.530e-05  alpha:  5.086e-01  linmin:  6.123e-04  t[s]:   4962.63
	FillingsUpdate:  mu: -0.102883897  nElectrons: 232.000000  magneticMoment: [ Abs: 0.02424  Tot: -0.00435 ]
	SubspaceRotationAdjust: set factor to 0.691
ElecMinimize: Iter:   4  G: -370.975964443122166  |grad|_K:  2.074e-05  alpha:  1.856e-01  linmin:  2.560e-04  t[s]:   5092.03
	FillingsUpdate:  mu: -0.106049893  nElectrons: 232.000000  magneticMoment: [ Abs: 0.01888  Tot: -0.00023 ]
	SubspaceRotationAdjust: set factor to 0.718
ElecMinimize: Iter:   5  G: -371.010172458600380  |grad|_K:  1.342e-05  alpha:  4.424e-01  linmin: -1.866e-05  t[s]:   5222.31
	FillingsUpdate:  mu: -0.102040985  nElectrons: 232.000000  magneticMoment: [ Abs: 0.01627  Tot: -0.00092 ]
	SubspaceRotationAdjust: set factor to 0.595
ElecMinimize: Iter:   6  G: -371.024599639782991  |grad|_K:  8.865e-06  alpha:  3.624e-01  linmin:  1.435e-04  t[s]:   5352.29
	FillingsUpdate:  mu: -0.107401281  nElectrons: 232.000000  magneticMoment: [ Abs: 0.01647  Tot: -0.00976 ]
	SubspaceRotationAdjust: set factor to 0.533
ElecMinimize: Iter:   7  G: -371.031949556549705  |grad|_K:  5.967e-06  alpha:  4.365e-01  linmin:  9.008e-05  t[s]:   5481.67
	FillingsUpdate:  mu: -0.108854285  nElectrons: 232.000000  magneticMoment: [ Abs: 0.01034  Tot: -0.00576 ]
	SubspaceRotationAdjust: set factor to 0.634
ElecMinimize: Iter:   8  G: -371.035395538060527  |grad|_K:  3.783e-06  alpha:  4.600e-01  linmin:  9.578e-07  t[s]:   5611.41
	FillingsUpdate:  mu: -0.107913166  nElectrons: 232.000000  magneticMoment: [ Abs: 0.00613  Tot: -0.00153 ]
	SubspaceRotationAdjust: set factor to 0.601
ElecMinimize: Iter:   9  G: -371.036575816378274  |grad|_K:  2.474e-06  alpha:  3.801e-01  linmin: -1.237e-05  t[s]:   5740.96
	FillingsUpdate:  mu: -0.108373762  nElectrons: 232.000000  magneticMoment: [ Abs: 0.00391  Tot: -0.00029 ]
	SubspaceRotationAdjust: set factor to 0.588
ElecMinimize: Iter:  10  G: -371.037211334445658  |grad|_K:  1.754e-06  alpha:  4.733e-01  linmin: -3.321e-06  t[s]:   5870.26
	FillingsUpdate:  mu: -0.108977789  nElectrons: 232.000000  magneticMoment: [ Abs: 0.00243  Tot: +0.00016 ]
	SubspaceRotationAdjust: set factor to 0.626
ElecMinimize: Iter:  11  G: -371.037551943541985  |grad|_K:  1.220e-06  alpha:  5.073e-01  linmin: -7.132e-07  t[s]:   6000.02
	FillingsUpdate:  mu: -0.108652803  nElectrons: 232.000000  magneticMoment: [ Abs: 0.00161  Tot: +0.00034 ]
	SubspaceRotationAdjust: set factor to 0.584
ElecMinimize: Iter:  12  G: -371.037693725716395  |grad|_K:  8.985e-07  alpha:  4.372e-01  linmin:  1.539e-06  t[s]:   6129.63
	FillingsUpdate:  mu: -0.108862297  nElectrons: 232.000000  magneticMoment: [ Abs: 0.00102  Tot: +0.00033 ]
	SubspaceRotationAdjust: set factor to 0.565
ElecMinimize: Iter:  13  G: -371.037777383197181  |grad|_K:  6.277e-07  alpha:  4.757e-01  linmin:  4.373e-07  t[s]:   6259.24
	FillingsUpdate:  mu: -0.108924914  nElectrons: 232.000000  magneticMoment: [ Abs: 0.00075  Tot: +0.00023 ]
	SubspaceRotationAdjust: set factor to 0.586
ElecMinimize: Iter:  14  G: -371.037818389207303  |grad|_K:  4.395e-07  alpha:  4.775e-01  linmin: -1.375e-08  t[s]:   6388.86
	FillingsUpdate:  mu: -0.108844701  nElectrons: 232.000000  magneticMoment: [ Abs: 0.00051  Tot: +0.00011 ]
	SubspaceRotationAdjust: set factor to 0.567
ElecMinimize: Iter:  15  G: -371.037841174194796  |grad|_K:  3.542e-07  alpha:  5.412e-01  linmin:  4.373e-07  t[s]:   6518.65
	FillingsUpdate:  mu: -0.108971873  nElectrons: 232.000000  magneticMoment: [ Abs: 0.00037  Tot: +0.00004 ]
	SubspaceRotationAdjust: set factor to 0.542
ElecMinimize: Iter:  16  G: -371.037852714106975  |grad|_K:  2.353e-07  alpha:  4.221e-01  linmin: -8.905e-07  t[s]:   6648.22
	FillingsUpdate:  mu: -0.109022436  nElectrons: 232.000000  magneticMoment: [ Abs: 0.00025  Tot: -0.00001 ]
	SubspaceRotationAdjust: set factor to 0.534
ElecMinimize: Iter:  17  G: -371.037859414847048  |grad|_K:  1.897e-07  alpha:  5.553e-01  linmin:  1.016e-06  t[s]:   6777.85
	FillingsUpdate:  mu: -0.109019066  nElectrons: 232.000000  magneticMoment: [ Abs: 0.00019  Tot: -0.00004 ]
	SubspaceRotationAdjust: set factor to 0.575
ElecMinimize: Iter:  18  G: -371.037863452072656  |grad|_K:  1.339e-07  alpha:  5.152e-01  linmin:  6.084e-06  t[s]:   6907.15
	FillingsUpdate:  mu: -0.109008527  nElectrons: 232.000000  magneticMoment: [ Abs: 0.00016  Tot: -0.00004 ]
	SubspaceRotationAdjust: set factor to 0.543
ElecMinimize: Iter:  19  G: -371.037865191750484  |grad|_K:  9.781e-08  alpha:  4.454e-01  linmin: -1.126e-06  t[s]:   7035.82
	FillingsUpdate:  mu: -0.108934145  nElectrons: 232.000000  magneticMoment: [ Abs: 0.00012  Tot: -0.00003 ]
	SubspaceRotationAdjust: set factor to 0.552
ElecMinimize: Iter:  20  G: -371.037866341212862  |grad|_K:  7.446e-08  alpha:  5.512e-01  linmin: -1.410e-06  t[s]:   7164.20
	FillingsUpdate:  mu: -0.108944356  nElectrons: 232.000000  magneticMoment: [ Abs: 0.00009  Tot: -0.00002 ]
	SubspaceRotationAdjust: set factor to 0.568
ElecMinimize: Iter:  21  G: -371.037866946656436  |grad|_K:  5.230e-08  alpha:  5.006e-01  linmin:  2.899e-07  t[s]:   7292.58
	FillingsUpdate:  mu: -0.108997583  nElectrons: 232.000000  magneticMoment: [ Abs: 0.00006  Tot: -0.00001 ]
	SubspaceRotationAdjust: set factor to 0.531
ElecMinimize: Iter:  22  G: -371.037867239147829  |grad|_K:  4.032e-08  alpha:  4.908e-01  linmin: -4.213e-07  t[s]:   7420.74
	FillingsUpdate:  mu: -0.108996101  nElectrons: 232.000000  magneticMoment: [ Abs: 0.00005  Tot: -0.00000 ]
	SubspaceRotationAdjust: set factor to 0.532
ElecMinimize: Iter:  23  G: -371.037867411171760  |grad|_K:  2.814e-08  alpha:  4.852e-01  linmin:  1.165e-06  t[s]:   7548.64
	FillingsUpdate:  mu: -0.108976616  nElectrons: 232.000000  magneticMoment: [ Abs: 0.00003  Tot: +0.00000 ]
	SubspaceRotationAdjust: set factor to 0.534
ElecMinimize: Iter:  24  G: -371.037867507279088  |grad|_K:  2.248e-08  alpha:  5.570e-01  linmin: -3.727e-07  t[s]:   7677.15
	FillingsUpdate:  mu: -0.108977487  nElectrons: 232.000000  magneticMoment: [ Abs: 0.00002  Tot: +0.00001 ]
	SubspaceRotationAdjust: set factor to 0.538
ElecMinimize: Iter:  25  G: -371.037867564579756  |grad|_K:  1.668e-08  alpha:  5.204e-01  linmin: -1.033e-07  t[s]:   7805.77
ElecMinimize: Converged (|Delta G|<1.000000e-07 for 2 iters).
Setting wave functions to eigenvectors of Hamiltonian
Converging empty states (this may take a while): |deigs|: 1.004e-02
Vacuum energy after initial minimize, F = -371.037867564579756

Shifting auxilliary hamiltonian by -0.036523 to set nElectrons=232.000000

-------- Electronic minimization -----------
	Linear fluid (dielectric constant: 78.4, screening length: 8.12261 Bohr) occupying 0.709759 of unit cell:	Completed after 24 iterations at t[s]:   8560.74
	FillingsUpdate:  mu: -0.145500000  nElectrons: 232.000000  magneticMoment: [ Abs: 0.00001  Tot: +0.00000 ]
ElecMinimize: Iter:   0  G: -371.045450080598414  |grad|_K:  7.416e-06  alpha:  1.000e+00
	Linear fluid (dielectric constant: 78.4, screening length: 8.12261 Bohr) occupying 0.712979 of unit cell:	Completed after 19 iterations at t[s]:   8685.08
	Linear fluid (dielectric constant: 78.4, screening length: 8.12261 Bohr) occupying 0.712348 of unit cell:	Completed after 13 iterations at t[s]:   8733.74
	FillingsUpdate:  mu: -0.145500000  nElectrons: 232.407632  magneticMoment: [ Abs: 0.00001  Tot: +0.00000 ]
	SubspaceRotationAdjust: set factor to 0.614
ElecMinimize: Iter:   1  G: -371.053588801356227  |grad|_K:  3.975e-06  alpha:  7.753e-01  linmin: -7.538e-04  t[s]:   8789.37
	Linear fluid (dielectric constant: 78.4, screening length: 8.12261 Bohr) occupying 0.713050 of unit cell:	Completed after 17 iterations at t[s]:   8847.50
	Linear fluid (dielectric constant: 78.4, screening length: 8.12261 Bohr) occupying 0.713008 of unit cell:	Completed after 7 iterations at t[s]:   8891.83
	FillingsUpdate:  mu: -0.145500000  nElectrons: 232.415994  magneticMoment: [ Abs: 0.00000  Tot: +0.00000 ]
	SubspaceRotationAdjust: set factor to 0.532
ElecMinimize: Iter:   2  G: -371.056359242207520  |grad|_K:  2.558e-06  alpha:  7.316e-01  linmin: -3.817e-05  t[s]:   8947.19
	Linear fluid (dielectric constant: 78.4, screening length: 8.12261 Bohr) occupying 0.713540 of unit cell:	Completed after 11 iterations at t[s]:   9001.52
	Linear fluid (dielectric constant: 78.4, screening length: 8.12261 Bohr) occupying 0.713370 of unit cell:	Completed after 9 iterations at t[s]:   9047.75
	FillingsUpdate:  mu: -0.145500000  nElectrons: 232.433472  magneticMoment: [ Abs: 0.00000  Tot: +0.00000 ]
	SubspaceRotationAdjust: set factor to 0.398
ElecMinimize: Iter:   3  G: -371.057087266770282  |grad|_K:  1.913e-06  alpha:  4.971e-01  linmin: -9.054e-06  t[s]:   9103.21
	Linear fluid (dielectric constant: 78.4, screening length: 8.12261 Bohr) occupying 0.713540 of unit cell:	Completed after 11 iterations at t[s]:   9157.71
	Linear fluid (dielectric constant: 78.4, screening length: 8.12261 Bohr) occupying 0.713507 of unit cell:	Completed after 4 iterations at t[s]:   9200.22
	FillingsUpdate:  mu: -0.145500000  nElectrons: 232.437608  magneticMoment: [ Abs: 0.00000  Tot: +0.00000 ]
	SubspaceRotationAdjust: set factor to 0.361
ElecMinimize: Iter:   4  G: -371.057405856648870  |grad|_K:  8.913e-07  alpha:  3.986e-01  linmin:  1.158e-06  t[s]:   9255.96
	Linear fluid (dielectric constant: 78.4, screening length: 8.12261 Bohr) occupying 0.713503 of unit cell:	Completed after 7 iterations at t[s]:   9307.64
	Linear fluid (dielectric constant: 78.4, screening length: 8.12261 Bohr) occupying 0.713498 of unit cell:	Completed after 7 iterations at t[s]:   9352.36
	FillingsUpdate:  mu: -0.145500000  nElectrons: 232.439456  magneticMoment: [ Abs: 0.00000  Tot: +0.00000 ]
	SubspaceRotationAdjust: set factor to 0.373
ElecMinimize: Iter:   5  G: -371.057539613826577  |grad|_K:  5.161e-07  alpha:  7.721e-01  linmin: -1.206e-05  t[s]:   9408.16
	Linear fluid (dielectric constant: 78.4, screening length: 8.12261 Bohr) occupying 0.713486 of unit cell:	Completed after 5 iterations at t[s]:   9457.70
	Linear fluid (dielectric constant: 78.4, screening length: 8.12261 Bohr) occupying 0.713487 of unit cell:	Completed after 2 iterations at t[s]:   9495.79
	FillingsUpdate:  mu: -0.145500000  nElectrons: 232.440192  magneticMoment: [ Abs: 0.00000  Tot: +0.00000 ]
	SubspaceRotationAdjust: set factor to 0.355
ElecMinimize: Iter:   6  G: -371.057581754944522  |grad|_K:  3.895e-07  alpha:  7.252e-01  linmin:  4.959e-06  t[s]:   9545.94
	Linear fluid (dielectric constant: 78.4, screening length: 8.12261 Bohr) occupying 0.713479 of unit cell:	Completed after 3 iterations at t[s]:   9593.01
	Linear fluid (dielectric constant: 78.4, screening length: 8.12261 Bohr) occupying 0.713482 of unit cell:	Completed after 2 iterations at t[s]:   9633.82
	FillingsUpdate:  mu: -0.145500000  nElectrons: 232.440331  magneticMoment: [ Abs: 0.00000  Tot: +0.00000 ]
	SubspaceRotationAdjust: set factor to 0.375
ElecMinimize: Iter:   7  G: -371.057598851024807  |grad|_K:  2.555e-07  alpha:  5.175e-01  linmin:  1.757e-05  t[s]:   9689.15
	Linear fluid (dielectric constant: 78.4, screening length: 8.12261 Bohr) occupying 0.713479 of unit cell:	Completed after 3 iterations at t[s]:   9737.57
	Linear fluid (dielectric constant: 78.4, screening length: 8.12261 Bohr) occupying 0.713478 of unit cell:	Completed after 2 iterations at t[s]:   9778.28
	FillingsUpdate:  mu: -0.145500000  nElectrons: 232.440275  magneticMoment: [ Abs: 0.00000  Tot: -0.00000 ]
	SubspaceRotationAdjust: set factor to 0.401
ElecMinimize: Iter:   8  G: -371.057608333196697  |grad|_K:  1.524e-07  alpha:  6.669e-01  linmin: -3.757e-05  t[s]:   9833.49
	Linear fluid (dielectric constant: 78.4, screening length: 8.12261 Bohr) occupying 0.713473 of unit cell:	Completed after 2 iterations at t[s]:   9881.33
	Linear fluid (dielectric constant: 78.4, screening length: 8.12261 Bohr) occupying 0.713472 of unit cell:	Completed after 0 iterations at t[s]:   9919.87
	FillingsUpdate:  mu: -0.145500000  nElectrons: 232.440142  magneticMoment: [ Abs: 0.00000  Tot: -0.00000 ]
	SubspaceRotationAdjust: set factor to 0.411
ElecMinimize: Iter:   9  G: -371.057611900801817  |grad|_K:  1.067e-07  alpha:  7.002e-01  linmin: -5.314e-05  t[s]:   9975.28
	Linear fluid (dielectric constant: 78.4, screening length: 8.12261 Bohr) occupying 0.713471 of unit cell:	Completed after 3 iterations at t[s]:  10023.52
	Linear fluid (dielectric constant: 78.4, screening length: 8.12261 Bohr) occupying 0.713471 of unit cell:	Completed after 0 iterations at t[s]:  10062.32
	FillingsUpdate:  mu: -0.145500000  nElectrons: 232.440066  magneticMoment: [ Abs: 0.00000  Tot: -0.00000 ]
	SubspaceRotationAdjust: set factor to 0.354
ElecMinimize: Iter:  10  G: -371.057613373986328  |grad|_K:  7.832e-08  alpha:  5.795e-01  linmin:  2.478e-04  t[s]:  10117.02
	Linear fluid (dielectric constant: 78.4, screening length: 8.12261 Bohr) occupying 0.713469 of unit cell:	Completed after 1 iterations at t[s]:  10164.18
	Linear fluid (dielectric constant: 78.4, screening length: 8.12261 Bohr) occupying 0.713470 of unit cell:	Completed after 0 iterations at t[s]:  10202.71
	FillingsUpdate:  mu: -0.145500000  nElectrons: 232.439957  magneticMoment: [ Abs: 0.00000  Tot: -0.00000 ]
	SubspaceRotationAdjust: set factor to 0.282
ElecMinimize: Iter:  11  G: -371.057613996716043  |grad|_K:  4.716e-08  alpha:  5.016e-01  linmin: -8.182e-05  t[s]:  10257.77
	Linear fluid (dielectric constant: 78.4, screening length: 8.12261 Bohr) occupying 0.713468 of unit cell:	Completed after 1 iterations at t[s]:  10304.93
	Linear fluid (dielectric constant: 78.4, screening length: 8.12261 Bohr) occupying 0.713468 of unit cell:	Completed after 0 iterations at t[s]:  10343.64
	FillingsUpdate:  mu: -0.145500000  nElectrons: 232.439905  magneticMoment: [ Abs: 0.00000  Tot: -0.00000 ]
	SubspaceRotationAdjust: set factor to 0.304
ElecMinimize: Iter:  12  G: -371.057614283254850  |grad|_K:  2.830e-08  alpha:  5.674e-01  linmin: -6.206e-04  t[s]:  10398.69
	Linear fluid (dielectric constant: 78.4, screening length: 8.12261 Bohr) occupying 0.713467 of unit cell:	Completed after 1 iterations at t[s]:  10445.77
	Linear fluid (dielectric constant: 78.4, screening length: 8.12261 Bohr) occupying 0.713467 of unit cell:	Completed after 0 iterations at t[s]:  10484.61
	FillingsUpdate:  mu: -0.145500000  nElectrons: 232.439879  magneticMoment: [ Abs: 0.00000  Tot: -0.00000 ]
	SubspaceRotationAdjust: set factor to 0.298
ElecMinimize: Iter:  13  G: -371.057614382300471  |grad|_K:  2.061e-08  alpha:  5.240e-01  linmin: -7.945e-04  t[s]:  10539.65
	Linear fluid (dielectric constant: 78.4, screening length: 8.12261 Bohr) occupying 0.713466 of unit cell:	Completed after 0 iterations at t[s]:  10585.37
	Linear fluid (dielectric constant: 78.4, screening length: 8.12261 Bohr) occupying 0.713466 of unit cell:	Completed after 0 iterations at t[s]:  10624.95
	FillingsUpdate:  mu: -0.145500000  nElectrons: 232.439853  magneticMoment: [ Abs: 0.00000  Tot: -0.00000 ]
	SubspaceRotationAdjust: set factor to 0.327
ElecMinimize: Iter:  14  G: -371.057614449185166  |grad|_K:  1.774e-08  alpha:  6.685e-01  linmin:  6.959e-05  t[s]:  10680.11
ElecMinimize: Converged (|Delta G|<1.000000e-07 for 2 iters).
Setting wave functions to eigenvectors of Hamiltonian
Converging empty states (this may take a while): |deigs|: 8.517e-04
Single-point solvation energy estimate, DeltaG = -0.019746884605411

Computing DFT-D3 correction:
# coordination-number C 3.300 3.321 3.334 3.332 3.313 3.291 3.325 3.580 3.330 3.314 3.303 3.332 3.304 3.301 3.324 3.621 3.267 3.301 3.320 3.334 3.327 3.302 3.301 3.326 3.335 3.320 3.301 3.269 3.571 3.324 3.302 3.306 3.323 3.302 3.314 3.329 3.622 3.325 3.290 3.313 3.332 3.334 3.321 3.300 3.000
# coordination-number N 3.177 3.177 3.176 3.182
# coordination-number Ti 7.489
# coordination-number O 1.996 1.052 1.982
# coordination-number H 1.002 0.993
# diagonal-C6 C 24.28 24.07 23.93 23.95 24.16 24.37 24.03 20.53 23.97 24.14 24.25 23.95 24.24 24.27 24.03 20.04 24.58 24.28 24.08 23.93 24.01 24.27 24.28 24.01 23.92 24.08 24.28 24.56 20.64 24.03 24.26 24.23 24.05 24.26 24.15 23.98 20.03 24.02 24.38 24.16 23.95 23.93 24.07 24.28 25.67
# diagonal-C6 N 15.60 15.60 15.60 15.60
# diagonal-C6 Ti 321.59
# diagonal-C6 O 10.41 12.77 10.41
# diagonal-C6 H 3.09 3.09
EvdW_6 =   -0.044050
EvdW_8 =   -0.033536
Completed 1 of 19 configurations.

Computing DFT-D3 correction:
# coordination-number C 3.300 3.321 3.334 3.332 3.313 3.291 3.325 3.580 3.330 3.314 3.303 3.332 3.304 3.301 3.324 3.621 3.267 3.301 3.320 3.334 3.327 3.302 3.301 3.326 3.335 3.320 3.301 3.269 3.571 3.324 3.302 3.306 3.323 3.302 3.314 3.329 3.622 3.325 3.290 3.313 3.332 3.334 3.321 3.300 3.000
# coordination-number N 3.177 3.177 3.176 3.182
# coordination-number Ti 7.489
# coordination-number O 1.996 1.052 1.982
# coordination-number H 1.002 0.993
# diagonal-C6 C 24.28 24.07 23.93 23.95 24.16 24.37 24.03 20.53 23.97 24.14 24.25 23.95 24.24 24.27 24.03 20.04 24.58 24.28 24.08 23.93 24.01 24.27 24.28 24.01 23.92 24.08 24.28 24.56 20.64 24.03 24.26 24.23 24.05 24.26 24.15 23.98 20.03 24.02 24.38 24.16 23.95 23.93 24.07 24.28 25.67
# diagonal-C6 N 15.60 15.60 15.60 15.60
# diagonal-C6 Ti 321.59
# diagonal-C6 O 10.41 12.77 10.41
# diagonal-C6 H 3.09 3.09
EvdW_6 =   -0.044050
EvdW_8 =   -0.033535
Shifting auxilliary hamiltonian by -0.000004 to set nElectrons=232.439853

-------- Electronic minimization -----------
	Linear fluid (dielectric constant: 78.4, screening length: 8.12261 Bohr) occupying 0.713465 of unit cell:	Completed after 5 iterations at t[s]:  11306.37
	FillingsUpdate:  mu: -0.145500000  nElectrons: 232.439853  magneticMoment: [ Abs: 0.00000  Tot: -0.00000 ]
ElecMinimize: Iter:   0  G: -371.057583187296871  |grad|_K:  3.456e-07  alpha:  1.000e+00
	Linear fluid (dielectric constant: 78.4, screening length: 8.12261 Bohr) occupying 0.713464 of unit cell:	Completed after 3 iterations at t[s]:  11416.33
	Linear fluid (dielectric constant: 78.4, screening length: 8.12261 Bohr) occupying 0.713465 of unit cell:	Completed after 3 iterations at t[s]:  11457.68
	FillingsUpdate:  mu: -0.145500000  nElectrons: 232.439898  magneticMoment: [ Abs: 0.00000  Tot: -0.00000 ]
	SubspaceRotationAdjust: set factor to 0.385
ElecMinimize: Iter:   1  G: -371.057602092355864  |grad|_K:  1.700e-07  alpha:  7.259e-01  linmin:  3.728e-05  t[s]:  11513.25
	Linear fluid (dielectric constant: 78.4, screening length: 8.12261 Bohr) occupying 0.713463 of unit cell:	Completed after 2 iterations at t[s]:  11562.03
	Linear fluid (dielectric constant: 78.4, screening length: 8.12261 Bohr) occupying 0.713463 of unit cell:	Completed after 2 iterations at t[s]:  11603.34
	FillingsUpdate:  mu: -0.145500000  nElectrons: 232.439857  magneticMoment: [ Abs: 0.00000  Tot: -0.00000 ]
	SubspaceRotationAdjust: set factor to 0.406
ElecMinimize: Iter:   2  G: -371.057605875850982  |grad|_K:  1.341e-07  alpha:  6.031e-01  linmin:  3.971e-05  t[s]:  11659.30
	Linear fluid (dielectric constant: 78.4, screening length: 8.12261 Bohr) occupying 0.713464 of unit cell:	Completed after 2 iterations at t[s]:  11708.25
	Linear fluid (dielectric constant: 78.4, screening length: 8.12261 Bohr) occupying 0.713464 of unit cell:	Completed after 0 iterations at t[s]:  11747.78
	FillingsUpdate:  mu: -0.145500000  nElectrons: 232.439890  magneticMoment: [ Abs: 0.00000  Tot: -0.00000 ]
	SubspaceRotationAdjust: set factor to 0.432
ElecMinimize: Iter:   3  G: -371.057608061636984  |grad|_K:  7.839e-08  alpha:  5.624e-01  linmin:  4.862e-05  t[s]:  11803.73
	Linear fluid (dielectric constant: 78.4, screening length: 8.12261 Bohr) occupying 0.713464 of unit cell:	Completed after 2 iterations at t[s]:  11852.30
	Linear fluid (dielectric constant: 78.4, screening length: 8.12261 Bohr) occupying 0.713464 of unit cell:	Completed after 0 iterations at t[s]:  11891.85
	FillingsUpdate:  mu: -0.145500000  nElectrons: 232.439876  magneticMoment: [ Abs: 0.00000  Tot: -0.00000 ]
	SubspaceRotationAdjust: set factor to 0.478
ElecMinimize: Iter:   4  G: -371.057608754799901  |grad|_K:  3.884e-08  alpha:  5.270e-01  linmin: -3.185e-05  t[s]:  11947.81
	Linear fluid (dielectric constant: 78.4, screening length: 8.12261 Bohr) occupying 0.713463 of unit cell:	Completed after 1 iterations at t[s]:  11995.94
	Linear fluid (dielectric constant: 78.4, screening length: 8.12261 Bohr) occupying 0.713463 of unit cell:	Completed after 0 iterations at t[s]:  12034.87
	FillingsUpdate:  mu: -0.145500000  nElectrons: 232.439888  magneticMoment: [ Abs: 0.00000  Tot: -0.00000 ]
	SubspaceRotationAdjust: set factor to 0.649
ElecMinimize: Iter:   5  G: -371.057608982726549  |grad|_K:  2.008e-08  alpha:  6.623e-01  linmin: -3.677e-04  t[s]:  12090.70
	Linear fluid (dielectric constant: 78.4, screening length: 8.12261 Bohr) occupying 0.713463 of unit cell:	Completed after 1 iterations at t[s]:  12138.76
	Linear fluid (dielectric constant: 78.4, screening length: 8.12261 Bohr) occupying 0.713463 of unit cell:	Completed after 0 iterations at t[s]:  12177.85
	FillingsUpdate:  mu: -0.145500000  nElectrons: 232.439888  magneticMoment: [ Abs: 0.00000  Tot: -0.00000 ]
	SubspaceRotationAdjust: set factor to 0.729
ElecMinimize: Iter:   6  G: -371.057609022824352  |grad|_K:  1.696e-08  alpha:  5.058e-01  linmin: -5.668e-04  t[s]:  12233.54
	Linear fluid (dielectric constant: 78.4, screening length: 8.12261 Bohr) occupying 0.713463 of unit cell:	Completed after 0 iterations at t[s]:  12280.33
	Linear fluid (dielectric constant: 78.4, screening length: 8.12261 Bohr) occupying 0.713463 of unit cell:	Completed after 0 iterations at t[s]:  12320.06
	FillingsUpdate:  mu: -0.145500000  nElectrons: 232.439877  magneticMoment: [ Abs: 0.00000  Tot: -0.00000 ]
	SubspaceRotationAdjust: set factor to 0.921
ElecMinimize: Iter:   7  G: -371.057609056930346  |grad|_K:  1.266e-08  alpha:  5.905e-01  linmin:  2.387e-04  t[s]:  12375.64
ElecMinimize: Converged (|Delta G|<1.000000e-07 for 2 iters).
Setting wave functions to eigenvectors of Hamiltonian
Converging empty states (this may take a while): |deigs|: 6.197e-08

Computing DFT-D3 correction:
# coordination-number C 3.300 3.321 3.334 3.332 3.313 3.291 3.325 3.580 3.330 3.314 3.303 3.332 3.304 3.301 3.324 3.621 3.267 3.301 3.320 3.334 3.327 3.302 3.301 3.326 3.335 3.320 3.301 3.269 3.571 3.324 3.302 3.306 3.323 3.302 3.314 3.329 3.622 3.325 3.290 3.313 3.332 3.334 3.321 3.300 3.000
# coordination-number N 3.177 3.177 3.176 3.182
# coordination-number Ti 7.489
# coordination-number O 1.996 1.052 1.982
# coordination-number H 1.002 0.993
# diagonal-C6 C 24.28 24.07 23.93 23.95 24.16 24.37 24.03 20.53 23.97 24.14 24.25 23.95 24.24 24.27 24.03 20.04 24.58 24.28 24.08 23.93 24.01 24.27 24.28 24.01 23.92 24.08 24.28 24.56 20.64 24.03 24.26 24.23 24.05 24.26 24.15 23.98 20.03 24.02 24.38 24.16 23.95 23.93 24.07 24.28 25.67
# diagonal-C6 N 15.60 15.60 15.60 15.60
# diagonal-C6 Ti 321.59
# diagonal-C6 O 10.41 12.77 10.41
# diagonal-C6 H 3.09 3.09
EvdW_6 =   -0.044050
EvdW_8 =   -0.033535
Completed 2 of 19 configurations.

Computing DFT-D3 correction:
# coordination-number C 3.300 3.321 3.334 3.332 3.313 3.291 3.325 3.580 3.330 3.314 3.303 3.332 3.304 3.301 3.324 3.621 3.267 3.301 3.320 3.334 3.327 3.302 3.301 3.326 3.335 3.320 3.301 3.269 3.571 3.324 3.302 3.306 3.323 3.302 3.314 3.329 3.622 3.325 3.290 3.313 3.332 3.334 3.321 3.300 3.000
# coordination-number N 3.177 3.177 3.176 3.182
# coordination-number Ti 7.489
# coordination-number O 1.996 1.052 1.982
# coordination-number H 1.002 0.993
# diagonal-C6 C 24.28 24.07 23.93 23.95 24.16 24.37 24.03 20.53 23.97 24.14 24.25 23.95 24.24 24.27 24.03 20.04 24.58 24.28 24.08 23.93 24.01 24.27 24.28 24.01 23.92 24.08 24.28 24.56 20.64 24.03 24.26 24.23 24.05 24.26 24.15 23.98 20.03 24.02 24.38 24.16 23.95 23.93 24.07 24.28 25.67
# diagonal-C6 N 15.60 15.60 15.60 15.60
# diagonal-C6 Ti 321.59
# diagonal-C6 O 10.41 12.77 10.41
# diagonal-C6 H 3.09 3.09
EvdW_6 =   -0.044050
EvdW_8 =   -0.033536
Shifting auxilliary hamiltonian by -0.000002 to set nElectrons=232.439877

-------- Electronic minimization -----------
	Linear fluid (dielectric constant: 78.4, screening length: 8.12261 Bohr) occupying 0.713470 of unit cell:	Completed after 7 iterations at t[s]:  12594.85
	FillingsUpdate:  mu: -0.145500000  nElectrons: 232.439877  magneticMoment: [ Abs: 0.00000  Tot: -0.00000 ]
ElecMinimize: Iter:   0  G: -371.057518793649422  |grad|_K:  6.840e-07  alpha:  1.000e+00
	Linear fluid (dielectric constant: 78.4, screening length: 8.12261 Bohr) occupying 0.713474 of unit cell:	Completed after 8 iterations at t[s]:  12711.28
	Linear fluid (dielectric constant: 78.4, screening length: 8.12261 Bohr) occupying 0.713472 of unit cell:	Completed after 4 iterations at t[s]:  12754.32
	FillingsUpdate:  mu: -0.145500000  nElectrons: 232.439874  magneticMoment: [ Abs: 0.00000  Tot: -0.00000 ]
	SubspaceRotationAdjust: set factor to 0.792
ElecMinimize: Iter:   1  G: -371.057574923101129  |grad|_K:  3.780e-07  alpha:  5.502e-01  linmin:  1.142e-05  t[s]:  12810.36
	Linear fluid (dielectric constant: 78.4, screening length: 8.12261 Bohr) occupying 0.713480 of unit cell:	Completed after 6 iterations at t[s]:  12862.27
	Linear fluid (dielectric constant: 78.4, screening length: 8.12261 Bohr) occupying 0.713479 of unit cell:	Completed after 2 iterations at t[s]:  12903.95
	FillingsUpdate:  mu: -0.145500000  nElectrons: 232.439806  magneticMoment: [ Abs: 0.00000  Tot: -0.00000 ]
	SubspaceRotationAdjust: set factor to 0.637
ElecMinimize: Iter:   2  G: -371.057589372500331  |grad|_K:  1.862e-07  alpha:  4.655e-01  linmin:  2.917e-06  t[s]:  12959.87
	Linear fluid (dielectric constant: 78.4, screening length: 8.12261 Bohr) occupying 0.713483 of unit cell:	Completed after 3 iterations at t[s]:  13009.22
	Linear fluid (dielectric constant: 78.4, screening length: 8.12261 Bohr) occupying 0.713483 of unit cell:	Completed after 0 iterations at t[s]:  13048.52
	FillingsUpdate:  mu: -0.145500000  nElectrons: 232.439910  magneticMoment: [ Abs: 0.00000  Tot: -0.00000 ]
	SubspaceRotationAdjust: set factor to 0.466
ElecMinimize: Iter:   3  G: -371.057592910552671  |grad|_K:  1.640e-07  alpha:  4.684e-01  linmin: -7.306e-05  t[s]:  13104.22
	Linear fluid (dielectric constant: 78.4, screening length: 8.12261 Bohr) occupying 0.713484 of unit cell:	Completed after 3 iterations at t[s]:  13153.79
	Linear fluid (dielectric constant: 78.4, screening length: 8.12261 Bohr) occupying 0.713484 of unit cell:	Completed after 0 iterations at t[s]:  13193.15
	FillingsUpdate:  mu: -0.145500000  nElectrons: 232.439868  magneticMoment: [ Abs: 0.00000  Tot: -0.00000 ]
	SubspaceRotationAdjust: set factor to 0.317
ElecMinimize: Iter:   4  G: -371.057595208203509  |grad|_K:  7.317e-08  alpha:  3.811e-01  linmin:  1.553e-03  t[s]:  13248.84
	Linear fluid (dielectric constant: 78.4, screening length: 8.12261 Bohr) occupying 0.713484 of unit cell:	Completed after 1 iterations at t[s]:  13296.52
	Linear fluid (dielectric constant: 78.4, screening length: 8.12261 Bohr) occupying 0.713484 of unit cell:	Completed after 0 iterations at t[s]:  13336.60
	FillingsUpdate:  mu: -0.145500000  nElectrons: 232.439878  magneticMoment: [ Abs: 0.00000  Tot: -0.00000 ]
	SubspaceRotationAdjust: set factor to 0.292
ElecMinimize: Iter:   5  G: -371.057595707241944  |grad|_K:  3.645e-08  alpha:  4.475e-01  linmin: -1.554e-02  t[s]:  13392.43
	Linear fluid (dielectric constant: 78.4, screening length: 8.12261 Bohr) occupying 0.713484 of unit cell:	Completed after 0 iterations at t[s]:  13438.46
	Linear fluid (dielectric constant: 78.4, screening length: 8.12261 Bohr) occupying 0.713485 of unit cell:	Completed after 1 iterations at t[s]:  13479.57
	FillingsUpdate:  mu: -0.145500000  nElectrons: 232.439870  magneticMoment: [ Abs: 0.00000  Tot: -0.00000 ]
	SubspaceRotationAdjust: set factor to 0.287
ElecMinimize: Iter:   6  G: -371.057595937805559  |grad|_K:  3.625e-08  alpha:  8.899e-01  linmin:  3.883e-03  t[s]:  13535.66
	Linear fluid (dielectric constant: 78.4, screening length: 8.12261 Bohr) occupying 0.713485 of unit cell:	Completed after 1 iterations at t[s]:  13583.06
	Linear fluid (dielectric constant: 78.4, screening length: 8.12261 Bohr) occupying 0.713485 of unit cell:	Completed after 0 iterations at t[s]:  13622.26
	FillingsUpdate:  mu: -0.145500000  nElectrons: 232.439877  magneticMoment: [ Abs: 0.00000  Tot: -0.00000 ]
	SubspaceRotationAdjust: set factor to 0.327
ElecMinimize: Iter:   7  G: -371.057596035133543  |grad|_K:  2.749e-08  alpha:  5.444e-01  linmin:  2.015e-05  t[s]:  13677.91
	Linear fluid (dielectric constant: 78.4, screening length: 8.12261 Bohr) occupying 0.713485 of unit cell:	Completed after 0 iterations at t[s]:  13724.87
	Linear fluid (dielectric constant: 78.4, screening length: 8.12261 Bohr) occupying 0.713485 of unit cell:	Completed after 0 iterations at t[s]:  13764.12
	FillingsUpdate:  mu: -0.145500000  nElectrons: 232.439888  magneticMoment: [ Abs: 0.00000  Tot: -0.00000 ]
	SubspaceRotationAdjust: set factor to 0.393
ElecMinimize: Iter:   8  G: -371.057596113827742  |grad|_K:  1.747e-08  alpha:  4.843e-01  linmin: -6.495e-04  t[s]:  13819.77
ElecMinimize: Converged (|Delta G|<1.000000e-07 for 2 iters).
Setting wave functions to eigenvectors of Hamiltonian
Converging empty states (this may take a while): |deigs|: 1.138e-08

Computing DFT-D3 correction:
# coordination-number C 3.300 3.321 3.334 3.332 3.313 3.291 3.325 3.580 3.330 3.314 3.303 3.332 3.304 3.301 3.324 3.621 3.267 3.301 3.320 3.334 3.327 3.302 3.301 3.326 3.335 3.320 3.301 3.269 3.571 3.324 3.302 3.306 3.323 3.302 3.314 3.329 3.622 3.325 3.290 3.313 3.332 3.334 3.321 3.300 3.000
# coordination-number N 3.177 3.177 3.176 3.182
# coordination-number Ti 7.489
# coordination-number O 1.996 1.052 1.982
# coordination-number H 1.002 0.993
# diagonal-C6 C 24.28 24.07 23.93 23.95 24.16 24.37 24.03 20.53 23.97 24.14 24.25 23.95 24.24 24.27 24.03 20.04 24.58 24.28 24.08 23.93 24.01 24.27 24.28 24.01 23.92 24.08 24.28 24.56 20.64 24.03 24.26 24.23 24.05 24.26 24.15 23.98 20.03 24.02 24.38 24.16 23.95 23.93 24.07 24.28 25.67
# diagonal-C6 N 15.60 15.60 15.60 15.60
# diagonal-C6 Ti 321.59
# diagonal-C6 O 10.41 12.77 10.41
# diagonal-C6 H 3.09 3.09
EvdW_6 =   -0.044050
EvdW_8 =   -0.033536
Completed 3 of 19 configurations.

Computing DFT-D3 correction:
# coordination-number C 3.300 3.321 3.334 3.332 3.313 3.291 3.325 3.580 3.330 3.314 3.303 3.332 3.304 3.301 3.324 3.621 3.267 3.301 3.320 3.334 3.327 3.302 3.301 3.326 3.335 3.320 3.301 3.269 3.571 3.324 3.302 3.306 3.323 3.302 3.314 3.329 3.622 3.325 3.290 3.313 3.332 3.334 3.321 3.300 2.999
# coordination-number N 3.177 3.177 3.176 3.182
# coordination-number Ti 7.489
# coordination-number O 1.996 1.052 1.982
# coordination-number H 1.002 0.993
# diagonal-C6 C 24.28 24.07 23.93 23.95 24.16 24.37 24.03 20.53 23.97 24.14 24.25 23.95 24.24 24.27 24.03 20.04 24.58 24.28 24.08 23.93 24.01 24.27 24.28 24.01 23.92 24.08 24.28 24.56 20.64 24.03 24.26 24.23 24.05 24.26 24.15 23.98 20.03 24.02 24.38 24.16 23.95 23.93 24.07 24.28 25.67
# diagonal-C6 N 15.60 15.60 15.60 15.60
# diagonal-C6 Ti 321.59
# diagonal-C6 O 10.41 12.77 10.41
# diagonal-C6 H 3.09 3.09
EvdW_6 =   -0.044050
EvdW_8 =   -0.033529
Shifting auxilliary hamiltonian by 0.000008 to set nElectrons=232.439888

-------- Electronic minimization -----------
	Linear fluid (dielectric constant: 78.4, screening length: 8.12261 Bohr) occupying 0.713441 of unit cell:	Completed after 7 iterations at t[s]:  14015.98
	FillingsUpdate:  mu: -0.145500000  nElectrons: 232.439888  magneticMoment: [ Abs: 0.00000  Tot: -0.00000 ]
ElecMinimize: Iter:   0  G: -371.057484719054287  |grad|_K:  7.251e-07  alpha:  1.000e+00
	Linear fluid (dielectric constant: 78.4, screening length: 8.12261 Bohr) occupying 0.713431 of unit cell:	Completed after 7 iterations at t[s]:  14131.40
	Linear fluid (dielectric constant: 78.4, screening length: 8.12261 Bohr) occupying 0.713435 of unit cell:	Completed after 4 iterations at t[s]:  14174.73
	FillingsUpdate:  mu: -0.145500000  nElectrons: 232.439684  magneticMoment: [ Abs: 0.00000  Tot: -0.00000 ]
	SubspaceRotationAdjust: set factor to 0.371
ElecMinimize: Iter:   1  G: -371.057551765254743  |grad|_K:  3.480e-07  alpha:  5.851e-01  linmin:  1.472e-05  t[s]:  14230.82
	Linear fluid (dielectric constant: 78.4, screening length: 8.12261 Bohr) occupying 0.713425 of unit cell:	Completed after 4 iterations at t[s]:  14280.92
	Linear fluid (dielectric constant: 78.4, screening length: 8.12261 Bohr) occupying 0.713425 of unit cell:	Completed after 0 iterations at t[s]:  14320.71
	FillingsUpdate:  mu: -0.145500000  nElectrons: 232.439728  magneticMoment: [ Abs: 0.00000  Tot: -0.00000 ]
	SubspaceRotationAdjust: set factor to 0.377
ElecMinimize: Iter:   2  G: -371.057567255156357  |grad|_K:  2.271e-07  alpha:  5.872e-01  linmin: -5.613e-05  t[s]:  14377.33
	Linear fluid (dielectric constant: 78.4, screening length: 8.12261 Bohr) occupying 0.713415 of unit cell:	Completed after 3 iterations at t[s]:  14425.57
	Linear fluid (dielectric constant: 78.4, screening length: 8.12261 Bohr) occupying 0.713416 of unit cell:	Completed after 0 iterations at t[s]:  14463.78
	FillingsUpdate:  mu: -0.145500000  nElectrons: 232.439614  magneticMoment: [ Abs: 0.00000  Tot: -0.00000 ]
	SubspaceRotationAdjust: set factor to 0.365
ElecMinimize: Iter:   3  G: -371.057573640627879  |grad|_K:  1.611e-07  alpha:  5.655e-01  linmin:  7.451e-05  t[s]:  14518.47
	Linear fluid (dielectric constant: 78.4, screening length: 8.12261 Bohr) occupying 0.713410 of unit cell:	Completed after 2 iterations at t[s]:  14565.90
	Linear fluid (dielectric constant: 78.4, screening length: 8.12261 Bohr) occupying 0.713410 of unit cell:	Completed after 0 iterations at t[s]:  14604.04
	FillingsUpdate:  mu: -0.145500000  nElectrons: 232.439560  magneticMoment: [ Abs: 0.00000  Tot: -0.00000 ]
	SubspaceRotationAdjust: set factor to 0.383
ElecMinimize: Iter:   4  G: -371.057576651015950  |grad|_K:  6.856e-08  alpha:  5.378e-01  linmin:  7.929e-06  t[s]:  14658.47
	Linear fluid (dielectric constant: 78.4, screening length: 8.12261 Bohr) occupying 0.713407 of unit cell:	Completed after 1 iterations at t[s]:  14704.96
	Linear fluid (dielectric constant: 78.4, screening length: 8.12261 Bohr) occupying 0.713405 of unit cell:	Completed after 0 iterations at t[s]:  14743.24
	FillingsUpdate:  mu: -0.145500000  nElectrons: 232.439488  magneticMoment: [ Abs: 0.00000  Tot: -0.00000 ]
	SubspaceRotationAdjust: set factor to 0.438
ElecMinimize: Iter:   5  G: -371.057577444779270  |grad|_K:  3.364e-08  alpha:  7.552e-01  linmin: -7.013e-04  t[s]:  14796.30
	Linear fluid (dielectric constant: 78.4, screening length: 8.12261 Bohr) occupying 0.713403 of unit cell:	Completed after 0 iterations at t[s]:  14840.30
	Linear fluid (dielectric constant: 78.4, screening length: 8.12261 Bohr) occupying 0.713402 of unit cell:	Completed after 0 iterations at t[s]:  14877.64
	FillingsUpdate:  mu: -0.145500000  nElectrons: 232.439442  magneticMoment: [ Abs: 0.00000  Tot: +0.00000 ]
	SubspaceRotationAdjust: set factor to 0.483
ElecMinimize: Iter:   6  G: -371.057577710585178  |grad|_K:  2.317e-08  alpha:  1.006e+00  linmin: -1.416e-06  t[s]:  14930.39
	Linear fluid (dielectric constant: 78.4, screening length: 8.12261 Bohr) occupying 0.713399 of unit cell:	Completed after 2 iterations at t[s]:  14975.94
	Linear fluid (dielectric constant: 78.4, screening length: 8.12261 Bohr) occupying 0.713401 of unit cell:	Completed after 0 iterations at t[s]:  15013.44
	FillingsUpdate:  mu: -0.145500000  nElectrons: 232.439429  magneticMoment: [ Abs: 0.00000  Tot: +0.00000 ]
	SubspaceRotationAdjust: set factor to 0.434
ElecMinimize: Iter:   7  G: -371.057577735305586  |grad|_K:  2.498e-08  alpha:  4.156e-01  linmin:  3.604e-04  t[s]:  15066.70
	Linear fluid (dielectric constant: 78.4, screening length: 8.12261 Bohr) occupying 0.713400 of unit cell:	Completed after 1 iterations at t[s]:  15112.21
	Linear fluid (dielectric constant: 78.4, screening length: 8.12261 Bohr) occupying 0.713400 of unit cell:	Completed after 0 iterations at t[s]:  15149.67
	FillingsUpdate:  mu: -0.145500000  nElectrons: 232.439409  magneticMoment: [ Abs: 0.00000  Tot: +0.00000 ]
	SubspaceRotationAdjust: set factor to 0.436
ElecMinimize: Iter:   8  G: -371.057577752968086  |grad|_K:  1.516e-08  alpha:  2.183e-01  linmin: -9.661e-05  t[s]:  15203.08
ElecMinimize: Converged (|Delta G|<1.000000e-07 for 2 iters).
Setting wave functions to eigenvectors of Hamiltonian
Converging empty states (this may take a while): |deigs|: 1.169e-08

Computing DFT-D3 correction:
# coordination-number C 3.300 3.321 3.334 3.332 3.313 3.291 3.325 3.580 3.330 3.314 3.303 3.332 3.304 3.301 3.324 3.621 3.267 3.301 3.320 3.334 3.327 3.302 3.301 3.326 3.335 3.320 3.301 3.269 3.571 3.324 3.302 3.306 3.323 3.302 3.314 3.329 3.622 3.325 3.290 3.313 3.332 3.334 3.321 3.300 2.999
# coordination-number N 3.177 3.177 3.176 3.182
# coordination-number Ti 7.489
# coordination-number O 1.996 1.052 1.982
# coordination-number H 1.002 0.993
# diagonal-C6 C 24.28 24.07 23.93 23.95 24.16 24.37 24.03 20.53 23.97 24.14 24.25 23.95 24.24 24.27 24.03 20.04 24.58 24.28 24.08 23.93 24.01 24.27 24.28 24.01 23.92 24.08 24.28 24.56 20.64 24.03 24.26 24.23 24.05 24.26 24.15 23.98 20.03 24.02 24.38 24.16 23.95 23.93 24.07 24.28 25.67
# diagonal-C6 N 15.60 15.60 15.60 15.60
# diagonal-C6 Ti 321.59
# diagonal-C6 O 10.41 12.77 10.41
# diagonal-C6 H 3.09 3.09
EvdW_6 =   -0.044050
EvdW_8 =   -0.033529
Completed 4 of 19 configurations.

Computing DFT-D3 correction:
# coordination-number C 3.300 3.321 3.334 3.332 3.313 3.291 3.325 3.580 3.330 3.314 3.303 3.332 3.304 3.301 3.324 3.621 3.267 3.301 3.320 3.334 3.327 3.302 3.301 3.326 3.335 3.320 3.301 3.269 3.571 3.324 3.302 3.306 3.323 3.302 3.314 3.329 3.622 3.325 3.290 3.313 3.332 3.334 3.321 3.300 3.000
# coordination-number N 3.177 3.177 3.176 3.182
# coordination-number Ti 7.489
# coordination-number O 1.996 1.052 1.982
# coordination-number H 1.002 0.993
# diagonal-C6 C 24.28 24.07 23.93 23.95 24.16 24.37 24.03 20.53 23.97 24.14 24.25 23.95 24.24 24.27 24.03 20.04 24.58 24.28 24.08 23.93 24.01 24.27 24.28 24.01 23.92 24.08 24.28 24.56 20.64 24.03 24.26 24.23 24.05 24.26 24.15 23.98 20.03 24.02 24.38 24.16 23.95 23.93 24.07 24.28 25.67
# diagonal-C6 N 15.60 15.60 15.60 15.60
# diagonal-C6 Ti 321.59
# diagonal-C6 O 10.41 12.77 10.41
# diagonal-C6 H 3.09 3.09
EvdW_6 =   -0.044050
EvdW_8 =   -0.033535
Shifting auxilliary hamiltonian by -0.000004 to set nElectrons=232.439409

-------- Electronic minimization -----------
	Linear fluid (dielectric constant: 78.4, screening length: 8.12261 Bohr) occupying 0.713449 of unit cell:	Completed after 6 iterations at t[s]:  15391.99
	FillingsUpdate:  mu: -0.145500000  nElectrons: 232.439409  magneticMoment: [ Abs: 0.00000  Tot: +0.00000 ]
ElecMinimize: Iter:   0  G: -371.057556472693250  |grad|_K:  5.267e-07  alpha:  1.000e+00
[...]
disp C  -0.001741533014642   0.004321277948002   0.001781196689157
disp N   0.000000000000000   0.000000000000000   0.000000000000000
disp N   0.000000000000000   0.000000000000000   0.000000000000000
disp N   0.000000000000000   0.000000000000000   0.000000000000000
disp N   0.000000000000000   0.000000000000000   0.000000000000000
disp Ti   0.000000000000000   0.000000000000000   0.000000000000000
disp O   0.001381993331547  -0.003460736317427  -0.000557932004781
disp O  -0.000039657312229   0.000219999976095  -0.001033505437619
disp O   0.000089100028261  -0.000052506494647  -0.000036910654775
disp H  -0.000520155191605  -0.000172801419519   0.002023534578341
disp H  -0.000177501569912   0.000225702686580   0.000070327428659

Real mode 12:
Frequency: 0.007063 Eh [ 1550 cm^-1 ]
Degeneracy: 1 of 1
IR intensity: 1.1155 e^2/amu [ 1087.5 km/mol ]
Displacements:
disp C   0.000000000000000   0.000000000000000   0.000000000000000
disp C   0.000000000000000   0.000000000000000   0.000000000000000
disp C   0.000000000000000   0.000000000000000   0.000000000000000
disp C   0.000000000000000   0.000000000000000   0.000000000000000
disp C   0.000000000000000   0.000000000000000   0.000000000000000
disp C   0.000000000000000   0.000000000000000   0.000000000000000
disp C   0.000000000000000   0.000000000000000   0.000000000000000
disp C   0.000000000000000   0.000000000000000   0.000000000000000
disp C   0.000000000000000   0.000000000000000   0.000000000000000
disp C   0.000000000000000   0.000000000000000   0.000000000000000
disp C   0.000000000000000   0.000000000000000   0.000000000000000
disp C   0.000000000000000   0.000000000000000   0.000000000000000
disp C   0.000000000000000   0.000000000000000   0.000000000000000
disp C   0.000000000000000   0.000000000000000   0.000000000000000
disp C   0.000000000000000   0.000000000000000   0.000000000000000
disp C   0.000000000000000   0.000000000000000   0.000000000000000
disp C   0.000000000000000   0.000000000000000   0.000000000000000
disp C   0.000000000000000   0.000000000000000   0.000000000000000
disp C   0.000000000000000   0.000000000000000   0.000000000000000
disp C   0.000000000000000   0.000000000000000   0.000000000000000
disp C   0.000000000000000   0.000000000000000   0.000000000000000
disp C   0.000000000000000   0.000000000000000   0.000000000000000
disp C   0.000000000000000   0.000000000000000   0.000000000000000
disp C   0.000000000000000   0.000000000000000   0.000000000000000
disp C   0.000000000000000   0.000000000000000   0.000000000000000
disp C   0.000000000000000   0.000000000000000   0.000000000000000
disp C   0.000000000000000   0.000000000000000   0.000000000000000
disp C   0.000000000000000   0.000000000000000   0.000000000000000
disp C   0.000000000000000   0.000000000000000   0.000000000000000
disp C   0.000000000000000   0.000000000000000   0.000000000000000
disp C   0.000000000000000   0.000000000000000   0.000000000000000
disp C   0.000000000000000   0.000000000000000   0.000000000000000
disp C   0.000000000000000   0.000000000000000   0.000000000000000
disp C   0.000000000000000   0.000000000000000   0.000000000000000
disp C   0.000000000000000   0.000000000000000   0.000000000000000
disp C   0.000000000000000   0.000000000000000   0.000000000000000
disp C   0.000000000000000   0.000000000000000   0.000000000000000
disp C   0.000000000000000   0.000000000000000   0.000000000000000
disp C   0.000000000000000   0.000000000000000   0.000000000000000
disp C   0.000000000000000   0.000000000000000   0.000000000000000
disp C   0.000000000000000   0.000000000000000   0.000000000000000
disp C   0.000000000000000   0.000000000000000   0.000000000000000
disp C   0.000000000000000   0.000000000000000   0.000000000000000
disp C   0.000000000000000   0.000000000000000   0.000000000000000
disp C  -0.000769896255709   0.002549338175287  -0.004746842881674
disp N   0.000000000000000   0.000000000000000   0.000000000000000
disp N   0.000000000000000   0.000000000000000   0.000000000000000
disp N   0.000000000000000   0.000000000000000   0.000000000000000
disp N   0.000000000000000   0.000000000000000   0.000000000000000
disp Ti   0.000000000000000   0.000000000000000   0.000000000000000
disp O   0.000043596723185  -0.000137486367918   0.000035033891921
disp O   0.000442553930628  -0.001543761130869   0.002905793989927
disp O  -0.000237297746273  -0.000031714430723  -0.000122917694883
disp H   0.002377540332615   0.001841492834073   0.000541349230764
disp H   0.001348037107868  -0.001900926090520   0.000094350285555

Real mode 13:
Frequency: 0.007348 Eh [ 1613 cm^-1 ]
Degeneracy: 1 of 1
IR intensity: 0.1044 e^2/amu [ 101.8 km/mol ]
Displacements:
disp C   0.000000000000000   0.000000000000000   0.000000000000000
disp C   0.000000000000000   0.000000000000000   0.000000000000000
disp C   0.000000000000000   0.000000000000000   0.000000000000000
disp C   0.000000000000000   0.000000000000000   0.000000000000000
disp C   0.000000000000000   0.000000000000000   0.000000000000000
disp C   0.000000000000000   0.000000000000000   0.000000000000000
disp C   0.000000000000000   0.000000000000000   0.000000000000000
disp C   0.000000000000000   0.000000000000000   0.000000000000000
disp C   0.000000000000000   0.000000000000000   0.000000000000000
disp C   0.000000000000000   0.000000000000000   0.000000000000000
disp C   0.000000000000000   0.000000000000000   0.000000000000000
disp C   0.000000000000000   0.000000000000000   0.000000000000000
disp C   0.000000000000000   0.000000000000000   0.000000000000000
disp C   0.000000000000000   0.000000000000000   0.000000000000000
disp C   0.000000000000000   0.000000000000000   0.000000000000000
disp C   0.000000000000000   0.000000000000000   0.000000000000000
disp C   0.000000000000000   0.000000000000000   0.000000000000000
disp C   0.000000000000000   0.000000000000000   0.000000000000000
disp C   0.000000000000000   0.000000000000000   0.000000000000000
disp C   0.000000000000000   0.000000000000000   0.000000000000000
disp C   0.000000000000000   0.000000000000000   0.000000000000000
disp C   0.000000000000000   0.000000000000000   0.000000000000000
disp C   0.000000000000000   0.000000000000000   0.000000000000000
disp C   0.000000000000000   0.000000000000000   0.000000000000000
disp C   0.000000000000000   0.000000000000000   0.000000000000000
disp C   0.000000000000000   0.000000000000000   0.000000000000000
disp C   0.000000000000000   0.000000000000000   0.000000000000000
disp C   0.000000000000000   0.000000000000000   0.000000000000000
disp C   0.000000000000000   0.000000000000000   0.000000000000000
disp C   0.000000000000000   0.000000000000000   0.000000000000000
disp C   0.000000000000000   0.000000000000000   0.000000000000000
disp C   0.000000000000000   0.000000000000000   0.000000000000000
disp C   0.000000000000000   0.000000000000000   0.000000000000000
disp C   0.000000000000000   0.000000000000000   0.000000000000000
disp C   0.000000000000000   0.000000000000000   0.000000000000000
disp C   0.000000000000000   0.000000000000000   0.000000000000000
disp C   0.000000000000000   0.000000000000000   0.000000000000000
disp C   0.000000000000000   0.000000000000000   0.000000000000000
disp C   0.000000000000000   0.000000000000000   0.000000000000000
disp C   0.000000000000000   0.000000000000000   0.000000000000000
disp C   0.000000000000000   0.000000000000000   0.000000000000000
disp C   0.000000000000000   0.000000000000000   0.000000000000000
disp C   0.000000000000000   0.000000000000000   0.000000000000000
disp C   0.000000000000000   0.000000000000000   0.000000000000000
disp C  -0.000116101851440   0.000290900398849  -0.000924108659933
disp N   0.000000000000000   0.000000000000000   0.000000000000000
disp N   0.000000000000000   0.000000000000000   0.000000000000000
disp N   0.000000000000000   0.000000000000000   0.000000000000000
disp N   0.000000000000000   0.000000000000000   0.000000000000000
disp Ti   0.000000000000000   0.000000000000000   0.000000000000000
disp O  -0.000028356894394  -0.000070575819586  -0.000011079697496
disp O   0.000185200320205  -0.000264989261340   0.000430636591264
disp O   0.001510932736347  -0.000309615305001   0.000695285625960
disp H  -0.015525473102347  -0.007178095992651  -0.003999786048318
disp H  -0.007838175698845   0.010616743938562  -0.000260722239717

Real mode 14:
Frequency: 0.014769 Eh [ 3241 cm^-1 ]
Degeneracy: 1 of 1
IR intensity: 1.0211 e^2/amu [ 995.5 km/mol ]
Displacements:
disp C   0.000000000000000   0.000000000000000   0.000000000000000
disp C   0.000000000000000   0.000000000000000   0.000000000000000
disp C   0.000000000000000   0.000000000000000   0.000000000000000
disp C   0.000000000000000   0.000000000000000   0.000000000000000
disp C   0.000000000000000   0.000000000000000   0.000000000000000
disp C   0.000000000000000   0.000000000000000   0.000000000000000
disp C   0.000000000000000   0.000000000000000   0.000000000000000
disp C   0.000000000000000   0.000000000000000   0.000000000000000
disp C   0.000000000000000   0.000000000000000   0.000000000000000
disp C   0.000000000000000   0.000000000000000   0.000000000000000
disp C   0.000000000000000   0.000000000000000   0.000000000000000
disp C   0.000000000000000   0.000000000000000   0.000000000000000
disp C   0.000000000000000   0.000000000000000   0.000000000000000
disp C   0.000000000000000   0.000000000000000   0.000000000000000
disp C   0.000000000000000   0.000000000000000   0.000000000000000
disp C   0.000000000000000   0.000000000000000   0.000000000000000
disp C   0.000000000000000   0.000000000000000   0.000000000000000
disp C   0.000000000000000   0.000000000000000   0.000000000000000
disp C   0.000000000000000   0.000000000000000   0.000000000000000
disp C   0.000000000000000   0.000000000000000   0.000000000000000
disp C   0.000000000000000   0.000000000000000   0.000000000000000
disp C   0.000000000000000   0.000000000000000   0.000000000000000
disp C   0.000000000000000   0.000000000000000   0.000000000000000
disp C   0.000000000000000   0.000000000000000   0.000000000000000
disp C   0.000000000000000   0.000000000000000   0.000000000000000
disp C   0.000000000000000   0.000000000000000   0.000000000000000
disp C   0.000000000000000   0.000000000000000   0.000000000000000
disp C   0.000000000000000   0.000000000000000   0.000000000000000
disp C   0.000000000000000   0.000000000000000   0.000000000000000
disp C   0.000000000000000   0.000000000000000   0.000000000000000
disp C   0.000000000000000   0.000000000000000   0.000000000000000
disp C   0.000000000000000   0.000000000000000   0.000000000000000
disp C   0.000000000000000   0.000000000000000   0.000000000000000
disp C   0.000000000000000   0.000000000000000   0.000000000000000
disp C   0.000000000000000   0.000000000000000   0.000000000000000
disp C   0.000000000000000   0.000000000000000   0.000000000000000
disp C   0.000000000000000   0.000000000000000   0.000000000000000
disp C   0.000000000000000   0.000000000000000   0.000000000000000
disp C   0.000000000000000   0.000000000000000   0.000000000000000
disp C   0.000000000000000   0.000000000000000   0.000000000000000
disp C   0.000000000000000   0.000000000000000   0.000000000000000
disp C   0.000000000000000   0.000000000000000   0.000000000000000
disp C   0.000000000000000   0.000000000000000   0.000000000000000
disp C   0.000000000000000   0.000000000000000   0.000000000000000
disp C  -0.000037313278784   0.000109469548706  -0.000133007463881
disp N   0.000000000000000   0.000000000000000   0.000000000000000
disp N   0.000000000000000   0.000000000000000   0.000000000000000
disp N   0.000000000000000   0.000000000000000   0.000000000000000
disp N   0.000000000000000   0.000000000000000   0.000000000000000
disp Ti   0.000000000000000   0.000000000000000   0.000000000000000
disp O   0.000021539113839  -0.000047742964203   0.000032926509621
disp O   0.000034311741991  -0.000095754886048   0.000058570701400
disp O  -0.000629853815127   0.001323666484245   0.000038899661196
disp H   0.009139729388955  -0.020561520417594  -0.001012306606014
disp H   0.000649686314069   0.001294848629043   0.000204376210785

Real mode 15:
Frequency: 0.017545 Eh [ 3851 cm^-1 ]
Degeneracy: 1 of 1
IR intensity: 0.0873 e^2/amu [ 85.1 km/mol ]
Displacements:
disp C   0.000000000000000   0.000000000000000   0.000000000000000
disp C   0.000000000000000   0.000000000000000   0.000000000000000
disp C   0.000000000000000   0.000000000000000   0.000000000000000
disp C   0.000000000000000   0.000000000000000   0.000000000000000
disp C   0.000000000000000   0.000000000000000   0.000000000000000
disp C   0.000000000000000   0.000000000000000   0.000000000000000
disp C   0.000000000000000   0.000000000000000   0.000000000000000
disp C   0.000000000000000   0.000000000000000   0.000000000000000
disp C   0.000000000000000   0.000000000000000   0.000000000000000
disp C   0.000000000000000   0.000000000000000   0.000000000000000
disp C   0.000000000000000   0.000000000000000   0.000000000000000
disp C   0.000000000000000   0.000000000000000   0.000000000000000
disp C   0.000000000000000   0.000000000000000   0.000000000000000
disp C   0.000000000000000   0.000000000000000   0.000000000000000
disp C   0.000000000000000   0.000000000000000   0.000000000000000
disp C   0.000000000000000   0.000000000000000   0.000000000000000
disp C   0.000000000000000   0.000000000000000   0.000000000000000
disp C   0.000000000000000   0.000000000000000   0.000000000000000
disp C   0.000000000000000   0.000000000000000   0.000000000000000
disp C   0.000000000000000   0.000000000000000   0.000000000000000
disp C   0.000000000000000   0.000000000000000   0.000000000000000
disp C   0.000000000000000   0.000000000000000   0.000000000000000
disp C   0.000000000000000   0.000000000000000   0.000000000000000
disp C   0.000000000000000   0.000000000000000   0.000000000000000
disp C   0.000000000000000   0.000000000000000   0.000000000000000
disp C   0.000000000000000   0.000000000000000   0.000000000000000
disp C   0.000000000000000   0.000000000000000   0.000000000000000
disp C   0.000000000000000   0.000000000000000   0.000000000000000
disp C   0.000000000000000   0.000000000000000   0.000000000000000
disp C   0.000000000000000   0.000000000000000   0.000000000000000
disp C   0.000000000000000   0.000000000000000   0.000000000000000
disp C   0.000000000000000   0.000000000000000   0.000000000000000
disp C   0.000000000000000   0.000000000000000   0.000000000000000
disp C   0.000000000000000   0.000000000000000   0.000000000000000
disp C   0.000000000000000   0.000000000000000   0.000000000000000
disp C   0.000000000000000   0.000000000000000   0.000000000000000
disp C   0.000000000000000   0.000000000000000   0.000000000000000
disp C   0.000000000000000   0.000000000000000   0.000000000000000
disp C   0.000000000000000   0.000000000000000   0.000000000000000
disp C   0.000000000000000   0.000000000000000   0.000000000000000
disp C   0.000000000000000   0.000000000000000   0.000000000000000
disp C   0.000000000000000   0.000000000000000   0.000000000000000
disp C   0.000000000000000   0.000000000000000   0.000000000000000
disp C   0.000000000000000   0.000000000000000   0.000000000000000
disp C  -0.000010979926756  -0.000008497053736  -0.000016864678817
disp N   0.000000000000000   0.000000000000000   0.000000000000000
disp N   0.000000000000000   0.000000000000000   0.000000000000000
disp N   0.000000000000000   0.000000000000000   0.000000000000000
disp N   0.000000000000000   0.000000000000000   0.000000000000000
disp Ti   0.000000000000000   0.000000000000000   0.000000000000000
disp O   0.000001721614988  -0.000009610193952   0.000001526683501
disp O   0.000006033106774  -0.000018651228340  -0.000013349546382
disp O   0.001010694944532   0.000937315987062   0.000326106930021
disp H   0.000757463619762  -0.000665161357774   0.000102419837614
disp H  -0.016970285162814  -0.014155918592006  -0.004794431264579

Vibrational free energy components at T = 298 K:
	ZPE:          0.034080
	Evib:         0.038197
	TSvib:        0.007643
	Avib:         0.030554


Dumping 'jdft.n_up' ... done
Dumping 'jdft.n_dn' ... done
Dumping 'jdft.tau_up' ... done
Dumping 'jdft.tau_dn' ... done
Dumping 'jdft.eigenvals' ... done
Dumping 'jdft.eigStats' ... 
	eMin: -2.281138 at state 9 ( [ +0.000000 +0.000000 +0.000000 ] spin -1 )
	HOMO: -0.150039 at state 13 ( [ +0.333333 +0.333333 +0.000000 ] spin -1 )
	mu  : -0.145500
	LUMO: -0.135483 at state 5 ( [ +0.333333 -0.333333 +0.000000 ] spin 1 )
	eMax: +0.018036 at state 9 ( [ +0.000000 +0.000000 +0.000000 ] spin -1 )
	HOMO-LUMO gap: +0.014556
	Optical gap  : +0.016345 at state 13 ( [ +0.333333 +0.333333 +0.000000 ] spin -1 )
Dumping 'jdft.kPts' ... done
Dumping 'jdft.dosUp' ... done.
Dumping 'jdft.dosDn' ... done.
End date and time: Wed Nov  9 22:37:50 2022  (Duration: 0-9:28:57.52)
Done!

PROFILER:             augmentDensityGrid     0.757727 +/-     0.944484 s, 2080 calls,   1576.071886 s total
PROFILER:         augmentDensityGridGrad     0.541826 +/-     0.678853 s, 1190 calls,    644.772820 s total
PROFILER:        augmentDensitySpherical     0.000536 +/-     0.000758 s, 2080 calls,      1.114536 s total
PROFILER:    augmentDensitySphericalGrad     0.000573 +/-     0.001016 s, 1630 calls,      0.934484 s total
PROFILER:                 augmentOverlap     1.558168 +/-     2.277734 s, 4360 calls,   6793.612478 s total
PROFILER:        ColumnBundle::randomize     0.005319 +/-     0.000000 s,    1 calls,      0.005319 s total
PROFILER:                     diagouterI    17.923745 +/-     3.545000 s,  419 calls,   7510.049197 s total
PROFILER:              EdensityAndVscloc     6.867339 +/-     4.260065 s,  417 calls,   2863.680438 s total
PROFILER:                     EnlAndGrad     0.001618 +/-     0.002466 s, 2280 calls,      3.689829 s total
PROFILER:            ExCorrCommunication     0.053205 +/-     0.067154 s, 2713 calls,    144.346075 s total
PROFILER:               ExCorrFunctional     0.027567 +/-     0.006376 s,  475 calls,     13.094296 s total
PROFILER:                    ExCorrTotal     0.577583 +/-     0.165137 s,  475 calls,    274.351693 s total
PROFILER:                   Idag_DiagV_I    30.145950 +/-    12.212409 s,  307 calls,   9254.806673 s total
PROFILER:                    initWeights     2.190942 +/-     0.000000 s,    1 calls,      2.190942 s total
PROFILER:                    inv(matrix)     0.002632 +/-     0.001404 s,  347 calls,      0.913426 s total
PROFILER:            matrix::diagonalize     0.011426 +/-     0.007319 s,  696 calls,      7.952835 s total
PROFILER:                    matrix::set     0.000002 +/-     0.000004 s, 43636 calls,      0.099272 s total
PROFILER:            orthoMatrix(matrix)     0.002160 +/-     0.001349 s,  417 calls,      0.900791 s total
PROFILER:     RadialFunctionR::transform     0.014417 +/-     0.144334 s,  151 calls,      2.176895 s total
PROFILER:                    reduceKmesh     0.000000 +/-     0.000000 s,    1 calls,      0.000000 s total
PROFILER:   VanDerWaalsD3::energyAndGrad     0.039703 +/-     0.003081 s,   39 calls,      1.548422 s total
PROFILER:               WavefunctionDrag    30.478286 +/-     0.409187 s,   19 calls,    579.087431 s total
PROFILER:                            Y*M     0.714046 +/-     0.916529 s, 7683 calls,   5486.014231 s total
PROFILER:                          Y1^Y2     0.744374 +/-     0.941013 s, 5733 calls,   4267.496998 s total

MEMUSAGE:                   ColumnBundle     1.365987 GB
MEMUSAGE:        complexScalarFieldTilde     0.074158 GB
MEMUSAGE:                    IndexArrays     0.023178 GB
MEMUSAGE:                         matrix     0.020855 GB
MEMUSAGE:                           misc     0.051230 GB
MEMUSAGE:                    ScalarField     0.395508 GB
MEMUSAGE:               ScalarFieldTilde     0.262436 GB
MEMUSAGE:                          Total     1.683398 GB
