
*************** JDFTx 1.7.0 (git hash 5f12716a) ***************

Start date and time: Wed Nov  9 18:58:43 2022
Executable /home/nisi6161/jdftx_alpine/build/jdftx with command-line: -i in
Running on hosts (process indices):  c3cpu-c11-u9-2.rc.int.colorado.edu (0-17)
Divided in process groups (process indices):  0 (0)  1 (1)  2 (2)  3 (3)  4 (4)  5 (5)  6 (6)  7 (7)  8 (8)  9 (9)  10 (10)  11 (11)  12 (12)  13 (13)  14 (14)  15 (15)  16 (16)  17 (17)
Resource initialization completed at t[s]:      0.00
Run totals: 18 processes, 48 threads, 0 GPUs


Input parsed successfully to the following command list (including defaults):

basis kpoint-dependent
converge-empty-states yes
coords-type Cartesian
core-overlap-check none
coulomb-interaction Periodic
davidson-band-ratio 1.1
density-of-states Etol 1.000000e-06 Esigma 1.000000e-03 \
		Complete \
	Total \
	OrthoOrbital C 1   s \
	OrthoOrbital C 1   p \
	OrthoOrbital C 1   px \
	OrthoOrbital C 1   py \
	OrthoOrbital C 1   pz \
	OrthoOrbital C 2   s \
	OrthoOrbital C 2   p \
	OrthoOrbital C 2   px \
	OrthoOrbital C 2   py \
	OrthoOrbital C 2   pz \
	OrthoOrbital C 3   s \
	OrthoOrbital C 3   p \
	OrthoOrbital C 3   px \
	OrthoOrbital C 3   py \
	OrthoOrbital C 3   pz \
	OrthoOrbital C 4   s \
	OrthoOrbital C 4   p \
	OrthoOrbital C 4   px \
	OrthoOrbital C 4   py \
	OrthoOrbital C 4   pz \
	OrthoOrbital C 5   s \
	OrthoOrbital C 5   p \
	OrthoOrbital C 5   px \
	OrthoOrbital C 5   py \
	OrthoOrbital C 5   pz \
	OrthoOrbital C 6   s \
	OrthoOrbital C 6   p \
	OrthoOrbital C 6   px \
	OrthoOrbital C 6   py \
	OrthoOrbital C 6   pz \
	OrthoOrbital C 7   s \
	OrthoOrbital C 7   p \
	OrthoOrbital C 7   px \
	OrthoOrbital C 7   py \
	OrthoOrbital C 7   pz \
	OrthoOrbital C 8   s \
	OrthoOrbital C 8   p \
	OrthoOrbital C 8   px \
	OrthoOrbital C 8   py \
	OrthoOrbital C 8   pz \
	OrthoOrbital C 9   s \
	OrthoOrbital C 9   p \
	OrthoOrbital C 9   px \
	OrthoOrbital C 9   py \
	OrthoOrbital C 9   pz \
	OrthoOrbital C 10   s \
	OrthoOrbital C 10   p \
	OrthoOrbital C 10   px \
	OrthoOrbital C 10   py \
	OrthoOrbital C 10   pz \
	OrthoOrbital C 11   s \
	OrthoOrbital C 11   p \
	OrthoOrbital C 11   px \
	OrthoOrbital C 11   py \
	OrthoOrbital C 11   pz \
	OrthoOrbital C 12   s \
	OrthoOrbital C 12   p \
	OrthoOrbital C 12   px \
	OrthoOrbital C 12   py \
	OrthoOrbital C 12   pz \
	OrthoOrbital C 13   s \
	OrthoOrbital C 13   p \
	OrthoOrbital C 13   px \
	OrthoOrbital C 13   py \
	OrthoOrbital C 13   pz \
	OrthoOrbital C 14   s \
	OrthoOrbital C 14   p \
	OrthoOrbital C 14   px \
	OrthoOrbital C 14   py \
	OrthoOrbital C 14   pz \
	OrthoOrbital C 15   s \
	OrthoOrbital C 15   p \
	OrthoOrbital C 15   px \
	OrthoOrbital C 15   py \
	OrthoOrbital C 15   pz \
	OrthoOrbital C 16   s \
	OrthoOrbital C 16   p \
	OrthoOrbital C 16   px \
	OrthoOrbital C 16   py \
	OrthoOrbital C 16   pz \
	OrthoOrbital C 17   s \
	OrthoOrbital C 17   p \
	OrthoOrbital C 17   px \
	OrthoOrbital C 17   py \
	OrthoOrbital C 17   pz \
	OrthoOrbital C 18   s \
	OrthoOrbital C 18   p \
	OrthoOrbital C 18   px \
	OrthoOrbital C 18   py \
	OrthoOrbital C 18   pz \
	OrthoOrbital C 19   s \
	OrthoOrbital C 19   p \
	OrthoOrbital C 19   px \
	OrthoOrbital C 19   py \
	OrthoOrbital C 19   pz \
	OrthoOrbital C 20   s \
	OrthoOrbital C 20   p \
	OrthoOrbital C 20   px \
	OrthoOrbital C 20   py \
	OrthoOrbital C 20   pz \
	OrthoOrbital C 21   s \
	OrthoOrbital C 21   p \
	OrthoOrbital C 21   px \
	OrthoOrbital C 21   py \
	OrthoOrbital C 21   pz \
	OrthoOrbital C 22   s \
	OrthoOrbital C 22   p \
	OrthoOrbital C 22   px \
	OrthoOrbital C 22   py \
	OrthoOrbital C 22   pz \
	OrthoOrbital C 23   s \
	OrthoOrbital C 23   p \
	OrthoOrbital C 23   px \
	OrthoOrbital C 23   py \
	OrthoOrbital C 23   pz \
	OrthoOrbital C 24   s \
	OrthoOrbital C 24   p \
	OrthoOrbital C 24   px \
	OrthoOrbital C 24   py \
	OrthoOrbital C 24   pz \
	OrthoOrbital C 25   s \
	OrthoOrbital C 25   p \
	OrthoOrbital C 25   px \
	OrthoOrbital C 25   py \
	OrthoOrbital C 25   pz \
	OrthoOrbital C 26   s \
	OrthoOrbital C 26   p \
	OrthoOrbital C 26   px \
	OrthoOrbital C 26   py \
	OrthoOrbital C 26   pz \
	OrthoOrbital C 27   s \
	OrthoOrbital C 27   p \
	OrthoOrbital C 27   px \
	OrthoOrbital C 27   py \
	OrthoOrbital C 27   pz \
	OrthoOrbital C 28   s \
	OrthoOrbital C 28   p \
	OrthoOrbital C 28   px \
	OrthoOrbital C 28   py \
	OrthoOrbital C 28   pz \
	OrthoOrbital C 29   s \
	OrthoOrbital C 29   p \
	OrthoOrbital C 29   px \
	OrthoOrbital C 29   py \
	OrthoOrbital C 29   pz \
	OrthoOrbital C 30   s \
	OrthoOrbital C 30   p \
	OrthoOrbital C 30   px \
	OrthoOrbital C 30   py \
	OrthoOrbital C 30   pz \
	OrthoOrbital C 31   s \
	OrthoOrbital C 31   p \
	OrthoOrbital C 31   px \
	OrthoOrbital C 31   py \
	OrthoOrbital C 31   pz \
	OrthoOrbital C 32   s \
	OrthoOrbital C 32   p \
	OrthoOrbital C 32   px \
	OrthoOrbital C 32   py \
	OrthoOrbital C 32   pz \
	OrthoOrbital C 33   s \
	OrthoOrbital C 33   p \
	OrthoOrbital C 33   px \
	OrthoOrbital C 33   py \
	OrthoOrbital C 33   pz \
	OrthoOrbital C 34   s \
	OrthoOrbital C 34   p \
	OrthoOrbital C 34   px \
	OrthoOrbital C 34   py \
	OrthoOrbital C 34   pz \
	OrthoOrbital C 35   s \
	OrthoOrbital C 35   p \
	OrthoOrbital C 35   px \
	OrthoOrbital C 35   py \
	OrthoOrbital C 35   pz \
	OrthoOrbital C 36   s \
	OrthoOrbital C 36   p \
	OrthoOrbital C 36   px \
	OrthoOrbital C 36   py \
	OrthoOrbital C 36   pz \
	OrthoOrbital C 37   s \
	OrthoOrbital C 37   p \
	OrthoOrbital C 37   px \
	OrthoOrbital C 37   py \
	OrthoOrbital C 37   pz \
	OrthoOrbital C 38   s \
	OrthoOrbital C 38   p \
	OrthoOrbital C 38   px \
	OrthoOrbital C 38   py \
	OrthoOrbital C 38   pz \
	OrthoOrbital C 39   s \
	OrthoOrbital C 39   p \
	OrthoOrbital C 39   px \
	OrthoOrbital C 39   py \
	OrthoOrbital C 39   pz \
	OrthoOrbital C 40   s \
	OrthoOrbital C 40   p \
	OrthoOrbital C 40   px \
	OrthoOrbital C 40   py \
	OrthoOrbital C 40   pz \
	OrthoOrbital C 41   s \
	OrthoOrbital C 41   p \
	OrthoOrbital C 41   px \
	OrthoOrbital C 41   py \
	OrthoOrbital C 41   pz \
	OrthoOrbital C 42   s \
	OrthoOrbital C 42   p \
	OrthoOrbital C 42   px \
	OrthoOrbital C 42   py \
	OrthoOrbital C 42   pz \
	OrthoOrbital C 43   s \
	OrthoOrbital C 43   p \
	OrthoOrbital C 43   px \
	OrthoOrbital C 43   py \
	OrthoOrbital C 43   pz \
	OrthoOrbital C 44   s \
	OrthoOrbital C 44   p \
	OrthoOrbital C 44   px \
	OrthoOrbital C 44   py \
	OrthoOrbital C 44   pz \
	OrthoOrbital C 45   s \
	OrthoOrbital C 45   p \
	OrthoOrbital C 45   px \
	OrthoOrbital C 45   py \
	OrthoOrbital C 45   pz \
	OrthoOrbital N 1   s \
	OrthoOrbital N 1   p \
	OrthoOrbital N 1   px \
	OrthoOrbital N 1   py \
	OrthoOrbital N 1   pz \
	OrthoOrbital N 2   s \
	OrthoOrbital N 2   p \
	OrthoOrbital N 2   px \
	OrthoOrbital N 2   py \
	OrthoOrbital N 2   pz \
	OrthoOrbital N 3   s \
	OrthoOrbital N 3   p \
	OrthoOrbital N 3   px \
	OrthoOrbital N 3   py \
	OrthoOrbital N 3   pz \
	OrthoOrbital N 4   s \
	OrthoOrbital N 4   p \
	OrthoOrbital N 4   px \
	OrthoOrbital N 4   py \
	OrthoOrbital N 4   pz \
	OrthoOrbital Ti 1   s \
	OrthoOrbital Ti 1   p \
	OrthoOrbital Ti 1   px \
	OrthoOrbital Ti 1   py \
	OrthoOrbital Ti 1   pz \
	OrthoOrbital Ti 1   d \
	OrthoOrbital Ti 1   dxy \
	OrthoOrbital Ti 1   dyz \
	OrthoOrbital Ti 1   dz2 \
	OrthoOrbital Ti 1   dxz \
	OrthoOrbital Ti 1   dx2-y2 \
	OrthoOrbital O 1   s \
	OrthoOrbital O 1   p \
	OrthoOrbital O 1   px \
	OrthoOrbital O 1   py \
	OrthoOrbital O 1   pz \
	OrthoOrbital O 2   s \
	OrthoOrbital O 2   p \
	OrthoOrbital O 2   px \
	OrthoOrbital O 2   py \
	OrthoOrbital O 2   pz \
	OrthoOrbital H 1   s
dump End ElecDensity KEdensity BandEigs EigStats RhoAtom DOS Kpoints
dump Ionic State IonicPositions Lattice EigStats Ecomponents
dump 
dump 
dump 
dump 
dump 
dump 
dump 
dump 
dump-name jdft.$VAR
elec-cutoff 20
elec-eigen-algo Davidson
elec-ex-corr gga-PBE
elec-initial-magnetization 0.000000 no
elec-n-bands 135
elec-smearing Fermi 0.001
electronic-minimize  \
	dirUpdateScheme      FletcherReeves \
	linminMethod         DirUpdateRecommended \
	nIterations          100 \
	history              15 \
	knormThreshold       0 \
	energyDiffThreshold  1e-07 \
	nEnergyDiff          2 \
	alphaTstart          1 \
	alphaTmin            1e-10 \
	updateTestStepSize   yes \
	alphaTreduceFactor   0.1 \
	alphaTincreaseFactor 3 \
	nAlphaAdjustMax      3 \
	wolfeEnergy          0.0001 \
	wolfeGradient        0.9 \
	fdTest               no
exchange-regularization WignerSeitzTruncated
fluid LinearPCM 298.000000 1.013250
fluid-anion F- 0.5 MeanFieldLJ \
	epsBulk 1 \
	pMol 0 \
	epsInf 1 \
	Pvap 0 \
	sigmaBulk 0 \
	Rvdw 2.24877 \
	Res 0 \
	tauNuc 343133
fluid-cation Na+ 0.5 MeanFieldLJ \
	epsBulk 1 \
	pMol 0 \
	epsInf 1 \
	Pvap 0 \
	sigmaBulk 0 \
	Rvdw 2.19208 \
	Res 0 \
	tauNuc 343133
fluid-ex-corr lda-TF lda-PZ
fluid-gummel-loop 10 1.000000e-05
fluid-minimize  \
	dirUpdateScheme      PolakRibiere \
	linminMethod         DirUpdateRecommended \
	nIterations          400 \
	history              15 \
	knormThreshold       1e-11 \
	energyDiffThreshold  0 \
	nEnergyDiff          2 \
	alphaTstart          1 \
	alphaTmin            1e-10 \
	updateTestStepSize   yes \
	alphaTreduceFactor   0.1 \
	alphaTincreaseFactor 3 \
	nAlphaAdjustMax      6 \
	wolfeEnergy          0.0001 \
	wolfeGradient        0.9 \
	fdTest               no
fluid-solvent H2O 55.338 ScalarEOS \
	epsBulk 78.4 \
	pMol 0.92466 \
	epsInf 1.77 \
	Pvap 1.06736e-10 \
	sigmaBulk 4.62e-05 \
	Rvdw 2.61727 \
	Res 1.42 \
	tauNuc 343133 \
	poleEl 15 7 1
forces-output-coords Positions
ion C   0.019565000000000   0.020385000000000   0.042045000000000 0
ion C  21.065079000000001   3.976259000000001   0.020201000000000 0
ion C  18.719748000000003   7.978975000000002  43.118931000000011 0
ion C  -7.025966000000002  11.980023000000003  43.103402000000010 0
ion C  -9.353751000000004  15.991451000000003  43.215263000000007 0
ion C   4.702126000000000   0.122098000000000   0.064365000000000 0
ion C   2.310548000000000   4.147901000000001   0.228566000000000 0
ion C  -0.106401000000000   7.962784000000002   0.140150000000000 0
ion C  -2.410157000000001  11.965691000000000  43.200080000000007 0
ion C  -4.703925999999999  15.995260999999999  43.207779000000009 0
ion C   9.394915000000001   0.011124000000000  43.238232000000011 0
ion C   7.109355999999999   4.122497000000001   0.085128000000000 0
ion C  -0.008614000000001  15.895261000000001   0.032702000000000 0
ion C   2.365703999999999  19.860022000000004  43.252420000000008 0
ion C  11.779802000000000   3.962187000000001  43.170492000000010 0
ion C   9.492625000000000   7.952458000000002  43.236199000000006 0
ion C   4.689291000000001  15.760848000000003   0.143005000000000 0
ion C   7.016052000000000  19.868122000000003   0.019249000000000 0
ion C  16.421976000000004   3.947955000000001  43.161928000000010 0
ion C  14.115639000000002   7.971310000000001  43.088522000000005 0
ion C  11.795090000000002  11.974703000000002  43.175294000000008 0
ion C   9.390291000000001  15.913470000000002   0.009733000000000 0
ion C   0.007461000000000   2.704744000000000   0.092482000000000 0
ion C  -2.401970000000001   6.632534000000002  43.232825000000005 0
ion C  -4.720909000000000  10.629843000000001  43.112096000000008 0
ion C  -7.028302000000002  14.654514000000004  43.168070000000007 0
ion C  -9.353310000000000  18.680787000000002   0.031015000000000 0
ion C   4.703268000000000   2.844154000000001   0.162298000000000 0
ion C  -0.104619000000000  10.645458000000003   0.104637000000000 0
ion C  -2.384473000000000  14.637350000000001  43.228153000000006 0
ion C  -4.703200999999999  18.681006000000004   0.001168000000000 0
ion C   9.408346999999999   2.691252000000001  43.226899000000010 0
ion C   2.292657000000000  14.455119000000002   0.170776000000000 0
ion C   0.004816999999999  18.576785999999998  43.250127000000006 0
ion C  14.100098000000001   2.605355000000000  43.183599000000008 0
ion C  11.806951000000000   6.633109000000001  43.138093000000005 0
ion C   9.486152000000002  10.643225000000001   0.008651000000000 0
ion C   7.088551999999998  14.484119000000003   0.109871000000000 0
ion C   4.689684000000000  18.481906000000002   0.050221000000000 0
ion C  18.749708000000002   2.613593000000000  43.229754000000007 0
ion C  16.419557999999999   6.622785000000001  43.099509000000005 0
ion C  14.109250000000003  10.643363000000004  43.099941000000008 0
ion C  11.765898000000002  14.646938000000002  43.216344000000007 0
ion C   9.379453000000003  18.596912000000000   0.019595000000000 0
ion C   4.585601000000000  10.096000999999999   5.587158000000001 1
ion N   2.177065999999999  11.866327000000000   0.320919000000000 0
ion N   7.201459000000001  11.888100000000001   0.210009000000000 0
ion N   2.181513000000000   6.749454000000002   0.404966000000000 0
ion N   7.221166999999999   6.705082000000001   0.151138000000000 0
ion Ti   4.816597000000000   9.308459000000001   1.763949000000000 0
ion O   4.167025000000001  10.833423000000000   7.944195000000001 1
ion O   6.289503000000001   8.415552000000000   5.245996000000001 1
ion H   2.810936999999999  12.123262000000004   7.953452000000002 1
ion-species /projects/musgravc/apps/jdftx-1.6.0/build/pseudopotentials/GBRV_v1.5/$ID_pbe_v1.uspp
ion-species /projects/musgravc/apps/jdftx-1.6.0/build/pseudopotentials/GBRV_v1.5/$ID_pbe_v1.2.uspp
ion-species /projects/musgravc/apps/jdftx-1.6.0/build/pseudopotentials/GBRV_v1.5/$ID_pbe_v1.4.uspp
ion-species /projects/musgravc/apps/jdftx-1.6.0/build/pseudopotentials/GBRV_v1.5/$ID_pbe_v1.5.uspp
ion-width Ecut
ionic-minimize  \
	dirUpdateScheme      L-BFGS \
	linminMethod         DirUpdateRecommended \
	nIterations          100 \
	history              15 \
	knormThreshold       0.0001 \
	energyDiffThreshold  0.0001 \
	nEnergyDiff          2 \
	alphaTstart          1 \
	alphaTmin            1e-10 \
	updateTestStepSize   yes \
	alphaTreduceFactor   0.1 \
	alphaTincreaseFactor 3 \
	nAlphaAdjustMax      3 \
	wolfeEnergy          0.0001 \
	wolfeGradient        0.9 \
	fdTest               no
kpoint   0.000000000000   0.000000000000   0.000000000000  1.00000000000000
kpoint-folding 3 3 1 
latt-move-scale 0 0 0
latt-scale 1 1 1 
lattice  \
	  23.436261999999999  -11.733459000000000    0.000000000000000  \
	   0.017994000000000   19.941849000000001    0.000000000000000  \
	   0.000000000000000    0.000000000000000   43.256312999999999 
lattice-minimize  \
	dirUpdateScheme      L-BFGS \
	linminMethod         DirUpdateRecommended \
	nIterations          0 \
	history              15 \
	knormThreshold       0 \
	energyDiffThreshold  1e-06 \
	nEnergyDiff          2 \
	alphaTstart          1 \
	alphaTmin            1e-10 \
	updateTestStepSize   yes \
	alphaTreduceFactor   0.1 \
	alphaTincreaseFactor 3 \
	nAlphaAdjustMax      3 \
	wolfeEnergy          0.0001 \
	wolfeGradient        0.9 \
	fdTest               no
lcao-params 30 1e-06 0.001
pcm-variant CANDLE
spintype z-spin
subspace-rotation-factor 1 yes
symmetries none
symmetry-threshold 0.0001
target-mu -0.1272 no

van-der-waals D3
vibrations \
	dr 0.01\
	centralDiff no\
	useConstraints yes\
	translationSym yes\
	rotationSym no\
	omegaMin 0.0002\
	T 298\
	omegaResolution 0.0001


Applied RMS atom displacement 0 bohrs to make symmetries exact.
Applied RMS atom displacement 0 bohrs to make symmetries exact.

---------- Initializing the Grid ----------
R = 
[      23.4363     -11.7335            0  ]
[     0.017994      19.9418            0  ]
[            0            0      43.2563  ]
unit cell volume = 20225.5
G =
[   0.267976   0.157673         -0  ]
[ -0.000241801   0.314933          0  ]
[          0         -0   0.145255  ]
Minimum fftbox size, Smin = [  96  96  176  ]
Chosen fftbox size, S = [  96  96  180  ]

---------- Exchange Correlation functional ----------
Initalized PBE GGA exchange.
Initalized PBE GGA correlation.

---------- Setting up pseudopotentials ----------
Width of ionic core gaussian charges (only for fluid interactions / plotting) set to 0.397384

Reading pseudopotential file '/projects/musgravc/apps/jdftx-1.6.0/build/pseudopotentials/GBRV_v1.5/c_pbe_v1.2.uspp':
  Title: C.  Created by USPP 7.3.6 on 3-2-2014
  Reference state energy: -5.406344.  4 valence electrons in orbitals:
    |200>  occupation: 2  eigenvalue: -0.504890
    |210>  occupation: 2  eigenvalue: -0.194356
  lMax: 1  lLocal: 2  QijEcut: 5
  4 projectors sampled on a log grid with 503 points:
    l: 0  eig: -0.504890  rCut: 1.3
    l: 0  eig: 0.000000  rCut: 1.3
    l: 1  eig: -0.194357  rCut: 1.3
    l: 1  eig: 0.000000  rCut: 1.3
  Partial core density with radius 1.1
  Transforming core density to a uniform radial grid of dG=0.02 with 1464 points.
  Transforming local potential to a uniform radial grid of dG=0.02 with 1464 points.
  Transforming nonlocal projectors to a uniform radial grid of dG=0.02 with 432 points.
  Transforming density augmentations to a uniform radial grid of dG=0.02 with 1464 points.
  Transforming atomic orbitals to a uniform radial grid of dG=0.02 with 432 points.
  Core radius for overlap checks: 1.30 bohrs.

Reading pseudopotential file '/projects/musgravc/apps/jdftx-1.6.0/build/pseudopotentials/GBRV_v1.5/n_pbe_v1.2.uspp':
  Title: N.  Created by USPP 7.3.6 on 3-2-2014
  Reference state energy: -9.763716.  5 valence electrons in orbitals:
    |200>  occupation: 2  eigenvalue: -0.681964
    |210>  occupation: 3  eigenvalue: -0.260726
  lMax: 1  lLocal: 2  QijEcut: 6
  4 projectors sampled on a log grid with 491 points:
    l: 0  eig: -0.681964  rCut: 1.15
    l: 0  eig: 0.000000  rCut: 1.15
    l: 1  eig: -0.260729  rCut: 1.2
    l: 1  eig: 0.500000  rCut: 1.2
  Partial core density with radius 0.8
  Transforming core density to a uniform radial grid of dG=0.02 with 1464 points.
  Transforming local potential to a uniform radial grid of dG=0.02 with 1464 points.
  Transforming nonlocal projectors to a uniform radial grid of dG=0.02 with 432 points.
  Transforming density augmentations to a uniform radial grid of dG=0.02 with 1464 points.
  Transforming atomic orbitals to a uniform radial grid of dG=0.02 with 432 points.
  Core radius for overlap checks: 1.20 bohrs.

Reading pseudopotential file '/projects/musgravc/apps/jdftx-1.6.0/build/pseudopotentials/GBRV_v1.5/ti_pbe_v1.4.uspp':
  Title: Ti.  Created by USPP 7.3.6 on 31-3-15
  Reference state energy: -59.020943.  12 valence electrons in orbitals:
    |300>  occupation: 2  eigenvalue: -2.777623
    |310>  occupation: 6  eigenvalue: -1.894596
    |400>  occupation: 2  eigenvalue: -0.438610
    |320>  occupation: 1  eigenvalue: -0.583119
  lMax: 2  lLocal: 3  QijEcut: 6
  6 projectors sampled on a log grid with 597 points:
    l: 0  eig: -2.777624  rCut: 1.8
    l: 0  eig: -0.438611  rCut: 1.8
    l: 1  eig: -1.894596  rCut: 1.8
    l: 1  eig: 0.500000  rCut: 1.8
    l: 2  eig: -0.583118  rCut: 1.8
    l: 2  eig: 0.150000  rCut: 1.8
  Partial core density with radius 0.8
  Transforming core density to a uniform radial grid of dG=0.02 with 1464 points.
  Transforming local potential to a uniform radial grid of dG=0.02 with 1464 points.
  Transforming nonlocal projectors to a uniform radial grid of dG=0.02 with 432 points.
  Transforming density augmentations to a uniform radial grid of dG=0.02 with 1464 points.
  Transforming atomic orbitals to a uniform radial grid of dG=0.02 with 432 points.
  Core radius for overlap checks: 1.80 bohrs.

Reading pseudopotential file '/projects/musgravc/apps/jdftx-1.6.0/build/pseudopotentials/GBRV_v1.5/o_pbe_v1.2.uspp':
  Title: O.  Created by USPP 7.3.6 on 3-2-2014
  Reference state energy: -15.894388.  6 valence electrons in orbitals:
    |200>  occupation: 2  eigenvalue: -0.878823
    |210>  occupation: 4  eigenvalue: -0.332131
  lMax: 2  lLocal: 2  QijEcut: 6
  5 projectors sampled on a log grid with 511 points:
    l: 0  eig: -0.878823  rCut: 1.25
    l: 0  eig: 0.000000  rCut: 1.25
    l: 1  eig: -0.332132  rCut: 1.25
    l: 1  eig: 0.000000  rCut: 1.25
    l: 2  eig: 1.000000  rCut: 1.25
  Partial core density with radius 0.7
  Transforming core density to a uniform radial grid of dG=0.02 with 1464 points.
  Transforming local potential to a uniform radial grid of dG=0.02 with 1464 points.
  Transforming nonlocal projectors to a uniform radial grid of dG=0.02 with 432 points.
  Transforming density augmentations to a uniform radial grid of dG=0.02 with 1464 points.
  Transforming atomic orbitals to a uniform radial grid of dG=0.02 with 432 points.
  Core radius for overlap checks: 1.25 bohrs.

Reading pseudopotential file '/projects/musgravc/apps/jdftx-1.6.0/build/pseudopotentials/GBRV_v1.5/h_pbe_v1.4.uspp':
  Title: H.  Created by USPP 7.3.6 on 2-4-15
  Reference state energy: -0.458849.  1 valence electrons in orbitals:
    |100>  occupation: 1  eigenvalue: -0.238595
  lMax: 0  lLocal: 1  QijEcut: 6
  2 projectors sampled on a log grid with 395 points:
    l: 0  eig: -0.238595  rCut: 1.2
    l: 0  eig: 1.000000  rCut: 1.2
  Transforming local potential to a uniform radial grid of dG=0.02 with 1464 points.
  Transforming nonlocal projectors to a uniform radial grid of dG=0.02 with 432 points.
  Transforming density augmentations to a uniform radial grid of dG=0.02 with 1464 points.
  Transforming atomic orbitals to a uniform radial grid of dG=0.02 with 432 points.
  Core radius for overlap checks: 1.20 bohrs.

Initialized 5 species with 53 total atoms.

Folded 1 k-points by 3x3x1 to 9 k-points.

---------- Setting up k-points, bands, fillings ----------
No reducable k-points. 
Computing the number of bands and number of electrons
Calculating initial fillings.
nElectrons: 225.000000   nBands: 135   nStates: 18

----- Setting up reduced wavefunction bases (one per k-point) -----
average nbasis = 86412.556 , ideal nbasis = 86404.907

----- Initializing Supercell corresponding to k-point mesh -----
Lattice vector linear combinations in supercell:
[   3   0   0  ]
[   0   3   0  ]
[   0   0   1  ]
Supercell lattice vectors:
[  70.3088  -35.2004  0  ]
[  0.053982  59.8255  0  ]
[  0  0  43.2563  ]

Initializing DFT-D3 calculator:
	Parameters set for gga-PBE functional
	s6:  1.000  s_r6:  1.217
	s8:  0.722  s_r8:  1.000
	Per-atom parameters loaded for:
	 C:  sqrtQ[a0]:  3.105  Rcov[a0]:  1.417  CN: [ 0.00 0.99 2.00 3.00 3.98 ]
	 N:  sqrtQ[a0]:  2.712  Rcov[a0]:  1.342  CN: [ 0.00 0.99 2.01 2.99 ]
	Ti:  sqrtQ[a0]:  6.288  Rcov[a0]:  2.305  CN: [ 0.00 1.83 3.87 ]
	 O:  sqrtQ[a0]:  2.594  Rcov[a0]:  1.191  CN: [ 0.00 0.99 1.99 ]
	 H:  sqrtQ[a0]:  2.007  Rcov[a0]:  0.605  CN: [ 0.91 0.00 ]

Initializing DFT-D2 calculator for fluid / solvation:
	 C:  C6:   30.35 Eh-a0^6  R0: 2.744 a0
	 N:  C6:   21.33 Eh-a0^6  R0: 2.640 a0
	Ti:  C6:  187.33 Eh-a0^6  R0: 2.952 a0
	 O:  C6:   12.14 Eh-a0^6  R0: 2.536 a0
	 H:  C6:    2.43 Eh-a0^6  R0: 1.892 a0

---------- Setting up ewald sum ----------
Optimum gaussian width for ewald sums = 5.608291 bohr.
Real space sum over 567 unit cells with max indices [  4  4  3  ]
Reciprocal space sum over 7803 terms with max indices [  8  8  13  ]

Computing DFT-D3 correction:
# coordination-number C 3.299 3.322 3.335 3.331 3.311 3.287 3.316 3.534 3.329 3.313 3.301 3.327 3.303 3.300 3.323 3.627 3.267 3.301 3.319 3.334 3.326 3.302 3.300 3.328 3.335 3.319 3.299 3.265 3.533 3.323 3.301 3.304 3.320 3.300 3.312 3.328 3.638 3.328 3.288 3.312 3.332 3.333 3.321 3.300 3.012
# coordination-number N 3.172 3.179 3.170 3.180
# coordination-number Ti 7.381
# coordination-number O 2.021 1.988
# coordination-number H 1.009
# diagonal-C6 C 24.29 24.07 23.92 23.96 24.17 24.40 24.12 21.15 23.98 24.16 24.27 24.01 24.26 24.28 24.05 19.97 24.58 24.28 24.09 23.93 24.02 24.26 24.28 24.00 23.92 24.09 24.29 24.59 21.17 24.05 24.28 24.24 24.08 24.28 24.16 23.99 19.85 24.00 24.39 24.16 23.96 23.94 24.08 24.28 25.65
# diagonal-C6 N 15.60 15.60 15.60 15.60
# diagonal-C6 Ti 321.59
# diagonal-C6 O 10.40 10.41
# diagonal-C6 H 3.09
EvdW_6 =   -0.040310
EvdW_8 =   -0.032052

---------- Allocating electronic variables ----------
Initializing wave functions:  linear combination of atomic orbitals
C pseudo-atom occupations:   s ( 2 )  p ( 2 )
N pseudo-atom occupations:   s ( 2 )  p ( 3 )
Ti pseudo-atom occupations:   s ( 2 0 )  p ( 6 )  d ( 4 )
O pseudo-atom occupations:   s ( 2 )  p ( 4 )
H pseudo-atom occupations:   s ( 1 )
	FillingsUpdate:  mu: -0.127200000  nElectrons: 225.000000  magneticMoment: [ Abs: 0.00492  Tot: +0.00081 ]
LCAOMinimize: Iter:   0  G: -353.8510366073537057  |grad|_K:  1.098e-02  alpha:  1.000e+00
	FillingsUpdate:  mu: -0.127200000  nElectrons: 225.000000  magneticMoment: [ Abs: 0.00430  Tot: -0.00007 ]
LCAOMinimize: Iter:   1  G: -354.4969643138955462  |grad|_K:  2.295e-03  alpha:  3.481e-01  linmin: -9.927e-03  cgtest: -3.879e+00  t[s]:    286.67
	FillingsUpdate:  mu: -0.127200000  nElectrons: 225.000000  magneticMoment: [ Abs: 0.00431  Tot: -0.00008 ]
LCAOMinimize: Iter:   2  G: -354.5668934844187561  |grad|_K:  2.493e-03  alpha:  1.264e-02  linmin: -5.830e-02  cgtest:  8.924e-01  t[s]:    403.14
LCAOMinimize: 	Wrong curvature in test step, increasing alphaT to 3.793200e-02.
	FillingsUpdate:  mu: -0.127200000  nElectrons: 225.000000  magneticMoment: [ Abs: 0.00448  Tot: +0.00035 ]
LCAOMinimize: Iter:   3  G: -354.7462181881214178  |grad|_K:  4.097e-03  alpha: -5.342e-03  linmin: -9.676e-02  cgtest:  5.699e-01  t[s]:    515.77
LCAOMinimize: 	Step increased G by 1.180973e+01, reducing alpha to 1.314028e-02.
	FillingsUpdate:  mu: -0.127200000  nElectrons: 225.000000  magneticMoment: [ Abs: 0.00503  Tot: +0.00109 ]
LCAOMinimize: Iter:   4  G: -355.7501367289287941  |grad|_K:  2.388e-03  alpha:  1.314e-02  linmin: -1.203e-01  cgtest:  6.234e-01  t[s]:    717.15
LCAOMinimize: Encountered beta<0, resetting CG.
LCAOMinimize: 	Predicted alpha/alphaT>3.000000, increasing alphaT to 3.942085e-02.
	FillingsUpdate:  mu: -0.127200000  nElectrons: 225.000000  magneticMoment: [ Abs: 0.00432  Tot: +0.00018 ]
LCAOMinimize: Iter:   5  G: -355.8929767960925119  |grad|_K:  1.377e-03  alpha:  5.233e-02  linmin: -1.723e-01  cgtest:  1.051e+00  t[s]:    862.97
LCAOMinimize: Encountered beta<0, resetting CG.
LCAOMinimize: 	Predicted alpha/alphaT>3.000000, increasing alphaT to 1.569785e-01.
LCAOMinimize: 	Predicted alpha/alphaT>3.000000, increasing alphaT to 4.709355e-01.
	FillingsUpdate:  mu: -0.127200000  nElectrons: 225.000000  magneticMoment: [ Abs: 0.00432  Tot: +0.00014 ]
LCAOMinimize: Iter:   6  G: -355.9681616088674332  |grad|_K:  1.238e-03  alpha:  4.855e-02  linmin: -2.733e-01  cgtest:  9.416e-01  t[s]:   1036.74
LCAOMinimize: Encountered beta<0, resetting CG.
LCAOMinimize: 	Predicted alpha/alphaT>3.000000, increasing alphaT to 1.456460e-01.
LCAOMinimize: 	Predicted alpha/alphaT>3.000000, increasing alphaT to 4.369380e-01.
	FillingsUpdate:  mu: -0.127200000  nElectrons: 225.000000  magneticMoment: [ Abs: 0.00432  Tot: +0.00012 ]
LCAOMinimize: Iter:   7  G: -356.0250558317133596  |grad|_K:  1.122e-03  alpha:  4.504e-02  linmin: -2.948e-01  cgtest:  9.410e-01  t[s]:   1211.40
LCAOMinimize: Encountered beta<0, resetting CG.
LCAOMinimize: 	Predicted alpha/alphaT>3.000000, increasing alphaT to 1.351063e-01.
LCAOMinimize: 	Predicted alpha/alphaT>3.000000, increasing alphaT to 4.053188e-01.
	FillingsUpdate:  mu: -0.127200000  nElectrons: 225.000000  magneticMoment: [ Abs: 0.00432  Tot: +0.00012 ]
LCAOMinimize: Iter:   8  G: -356.0681382693704791  |grad|_K:  1.017e-03  alpha:  4.158e-02  linmin: -3.073e-01  cgtest:  9.454e-01  t[s]:   1385.36
LCAOMinimize: Encountered beta<0, resetting CG.
LCAOMinimize: 	Predicted alpha/alphaT>3.000000, increasing alphaT to 1.247305e-01.
LCAOMinimize: 	Predicted alpha/alphaT>3.000000, increasing alphaT to 3.741914e-01.
	FillingsUpdate:  mu: -0.127200000  nElectrons: 225.000000  magneticMoment: [ Abs: 0.00433  Tot: +0.00013 ]
LCAOMinimize: Iter:   9  G: -356.1002300479483438  |grad|_K:  9.194e-04  alpha:  3.789e-02  linmin: -3.142e-01  cgtest:  9.511e-01  t[s]:   1559.75
LCAOMinimize: Encountered beta<0, resetting CG.
LCAOMinimize: 	Predicted alpha/alphaT>3.000000, increasing alphaT to 1.136719e-01.
LCAOMinimize: 	Predicted alpha/alphaT>3.000000, increasing alphaT to 3.410156e-01.
	FillingsUpdate:  mu: -0.127200000  nElectrons: 225.000000  magneticMoment: [ Abs: 0.00434  Tot: +0.00014 ]
LCAOMinimize: Iter:  10  G: -356.1270026076063004  |grad|_K:  8.173e-04  alpha:  3.896e-02  linmin: -3.146e-01  cgtest:  9.498e-01  t[s]:   1733.47
LCAOMinimize: Encountered beta<0, resetting CG.
LCAOMinimize: 	Predicted alpha/alphaT>3.000000, increasing alphaT to 1.168710e-01.
LCAOMinimize: 	Predicted alpha/alphaT>3.000000, increasing alphaT to 3.506129e-01.
	FillingsUpdate:  mu: -0.127200000  nElectrons: 225.000000  magneticMoment: [ Abs: 0.00435  Tot: +0.00016 ]
LCAOMinimize: Iter:  11  G: -356.1497036039763202  |grad|_K:  7.062e-04  alpha:  4.217e-02  linmin: -3.034e-01  cgtest:  9.434e-01  t[s]:   1907.88
LCAOMinimize: Encountered beta<0, resetting CG.
LCAOMinimize: 	Predicted alpha/alphaT>3.000000, increasing alphaT to 1.265062e-01.
LCAOMinimize: 	Step increased G by 3.514227e-02, reducing alpha to 2.303842e-02.
	FillingsUpdate:  mu: -0.127200000  nElectrons: 225.000000  magneticMoment: [ Abs: 0.00436  Tot: +0.00017 ]
LCAOMinimize: Iter:  12  G: -356.1591442710022761  |grad|_K:  6.491e-04  alpha:  2.304e-02  linmin: -2.926e-01  cgtest:  9.686e-01  t[s]:   2139.37
LCAOMinimize: Encountered beta<0, resetting CG.
LCAOMinimize: 	Predicted alpha/alphaT>3.000000, increasing alphaT to 6.911525e-02.
LCAOMinimize: 	Predicted alpha/alphaT>3.000000, increasing alphaT to 2.073457e-01.
	FillingsUpdate:  mu: -0.127200000  nElectrons: 225.000000  magneticMoment: [ Abs: 0.00442  Tot: +0.00023 ]
LCAOMinimize: Iter:  13  G: -356.1855578841555143  |grad|_K:  3.856e-04  alpha:  8.441e-02  linmin: -3.518e-01  cgtest:  8.450e-01  t[s]:   2313.07
LCAOMinimize: Encountered beta<0, resetting CG.
	FillingsUpdate:  mu: -0.127200000  nElectrons: 225.000000  magneticMoment: [ Abs: 0.00450  Tot: +0.00028 ]
LCAOMinimize: Iter:  14  G: -356.1951770504496722  |grad|_K:  5.296e-04  alpha:  1.991e-01  linmin:  2.300e-02  cgtest: -4.619e-02  t[s]:   2427.79
	FillingsUpdate:  mu: -0.127200000  nElectrons: 225.000000  magneticMoment: [ Abs: 0.00452  Tot: +0.00030 ]
LCAOMinimize: Iter:  15  G: -356.1984263560547106  |grad|_K:  4.468e-04  alpha:  5.114e-02  linmin:  9.234e-05  cgtest:  9.816e-01  t[s]:   2542.84
LCAOMinimize: Encountered beta<0, resetting CG.
	FillingsUpdate:  mu: -0.127200000  nElectrons: 225.000000  magneticMoment: [ Abs: 0.00447  Tot: +0.00024 ]
LCAOMinimize: Iter:  16  G: -356.2024098830048615  |grad|_K:  9.511e-05  alpha:  4.830e-02  linmin: -1.271e-01  cgtest:  6.552e-01  t[s]:   2658.02
LCAOMinimize: Encountered beta<0, resetting CG.
LCAOMinimize: 	Predicted alpha/alphaT>3.000000, increasing alphaT to 1.448867e-01.
	FillingsUpdate:  mu: -0.127200000  nElectrons: 225.000000  magneticMoment: [ Abs: 0.00447  Tot: +0.00024 ]
LCAOMinimize: Iter:  17  G: -356.2033366510735277  |grad|_K:  7.974e-05  alpha:  2.527e-01  linmin:  1.167e-02  cgtest: -1.806e-01  t[s]:   2802.02
	FillingsUpdate:  mu: -0.127200000  nElectrons: 225.000000  magneticMoment: [ Abs: 0.00452  Tot: +0.00029 ]
LCAOMinimize: Iter:  18  G: -356.2036306305058133  |grad|_K:  4.421e-05  alpha:  1.106e-01  linmin: -3.043e-02  cgtest:  4.535e-01  t[s]:   2917.89
LCAOMinimize: 	Predicted alpha/alphaT>3.000000, increasing alphaT to 3.318314e-01.
	FillingsUpdate:  mu: -0.127200000  nElectrons: 225.000000  magneticMoment: [ Abs: 0.00459  Tot: +0.00037 ]
LCAOMinimize: Iter:  19  G: -356.2039091267205322  |grad|_K:  4.196e-05  alpha:  3.341e-01  linmin:  1.967e-02  cgtest: -2.006e-01  t[s]:   3062.16
	FillingsUpdate:  mu: -0.127200000  nElectrons: 225.000000  magneticMoment: [ Abs: 0.00461  Tot: +0.00040 ]
LCAOMinimize: Iter:  20  G: -356.2040282182370561  |grad|_K:  3.530e-05  alpha:  1.420e-01  linmin:  4.680e-02  cgtest: -1.163e-01  t[s]:   3176.89
LCAOMinimize: 	Wrong curvature in test step, increasing alphaT to 4.260818e-01.
	FillingsUpdate:  mu: -0.127200000  nElectrons: 225.000000  magneticMoment: [ Abs: 0.00467  Tot: +0.00047 ]
LCAOMinimize: Iter:  21  G: -356.2041155981871725  |grad|_K:  3.086e-05  alpha: -3.307e-01  linmin: -1.105e-02  cgtest:  9.463e-01  t[s]:   3289.44
LCAOMinimize: Encountered beta<0, resetting CG.
	FillingsUpdate:  mu: -0.127200000  nElectrons: 225.000000  magneticMoment: [ Abs: 0.00469  Tot: +0.00050 ]
LCAOMinimize: Iter:  22  G: -356.2041291095208635  |grad|_K:  1.548e-05  alpha:  6.044e-02  linmin: -1.851e-01  cgtest:  8.055e-01  t[s]:   3405.70
LCAOMinimize: Encountered beta<0, resetting CG.
	FillingsUpdate:  mu: -0.127200000  nElectrons: 225.000000  magneticMoment: [ Abs: 0.00470  Tot: +0.00051 ]
LCAOMinimize: Iter:  23  G: -356.2041314120784818  |grad|_K:  1.249e-05  alpha:  3.974e-02  linmin: -2.459e-01  cgtest:  9.958e-01  t[s]:   3520.92
LCAOMinimize: Encountered beta<0, resetting CG.
	FillingsUpdate:  mu: -0.127200000  nElectrons: 225.000000  magneticMoment: [ Abs: 0.00470  Tot: +0.00052 ]
LCAOMinimize: Iter:  24  G: -356.2041322268096906  |grad|_K:  1.102e-05  alpha:  2.528e-02  linmin: -2.558e-01  cgtest:  9.996e-01  t[s]:   3635.68
LCAOMinimize: Encountered beta<0, resetting CG.
	FillingsUpdate:  mu: -0.127200000  nElectrons: 225.000000  magneticMoment: [ Abs: 0.00471  Tot: +0.00052 ]
LCAOMinimize: Iter:  25  G: -356.2041325356159973  |grad|_K:  1.024e-05  alpha:  1.534e-02  linmin: -2.590e-01  cgtest:  9.999e-01  t[s]:   3750.95
LCAOMinimize: Encountered beta<0, resetting CG.
LCAOMinimize: Converged (|Delta G|<1.000000e-06 for 2 iters).
----- createFluidSolver() ----- (Fluid-side solver setup)
   Initializing fluid molecule 'H2O'
     Initializing site 'O'
       Electron density: proportional to exp(-r/0.36935)*erfc((r-0.51523)/0.36823) with norm 6.826
       Charge density: gaussian nuclear width 0.478731 with net site charge 0.826
       Polarizability: cuspless exponential with width 0.32 and norm 3.73
       Hard sphere radius: 2.57003 bohrs
       Positions in reference frame:
         [ +0.000000 +0.000000 +0.000000 ]
     Initializing site 'H'
       Electron density: proportional to exp(-r/0.34641)*erfc((r-0)/0.390882) with norm 0.587
       Charge density: gaussian nuclear width 0.377945 with net site charge -0.413
       Polarizability: cuspless exponential with width 0.39 and norm 3.3
       Positions in reference frame:
         [ +0.000000 -1.441945 +1.122523 ]
         [ +0.000000 +1.441945 +1.122523 ]
     Net charge: 0   dipole magnitude: 0.927204
     Initializing spherical shell mfKernel with radius 2.61727 Bohr
     deltaS corrections:
       site 'O': -7.54299
       site 'H': -6.83917
   Initializing fluid molecule 'Na+'
     Initializing site 'Na'
       Electron density: proportional to exp(-r/0.19682)*erfc((r-0.71491)/0.41314) with norm 8.1383
       Charge density: gaussian nuclear width 0.365347 with net site charge -1
       Hard sphere radius: 1.86327 bohrs
       Positions in reference frame:
         [ +0.000000 +0.000000 +0.000000 ]
     Net charge: -1   dipole magnitude: 0
     Initializing gaussian mfKernel with width: 1.55004 Bohr
     deltaS corrections:
       site 'Na': -22.3555
   Initializing fluid molecule 'F-'
     Initializing site 'F'
       Electron density: proportional to exp(-r/0.38886)*erfc((r-0)/0.438782) with norm 8
       Charge density: gaussian nuclear width 0.374796 with net site charge 1
       Hard sphere radius: 2.39995 bohrs
       Positions in reference frame:
         [ +0.000000 +0.000000 +0.000000 ]
     Net charge: 1   dipole magnitude: 0
     Initializing gaussian mfKernel with width: 1.59012 Bohr
     deltaS corrections:
       site 'F': -9.04335

Correction to mu due to finite nuclear width = -0.0110378
   Cavity determined by nc: 0.00142 and sigma: 0.707107
   Nonlocal vdW cavity from gaussian model electron density with norm = 8 and sigma = 0.993594 bohr
   Charge asymmetry in cavity with sensitivity pCavity = 36.5 e-bohr/Eh
   Electrostatic cavity expanded by eta = 1.46 bohrs
   Weighted density cavitation model constrained by Nbulk: 0.0049383 bohr^-3, Pvap: 3.14029 kPa, Rvdw: 2.61727 bohr and sigmaBulk: 4.62e-05 Eh/bohr^2 at T: 298 K.
   Weighted density dispersion model using vdW pair potentials with single solvent site with sqrtC6eff: 0.77 SI.
WARNING: Vibrations: switching off translationSym and rotationSym since useConstraints is on.

---- Citations for features of the code used in this run ----

   Software package:
      R. Sundararaman, K. Letchworth-Weaver, K.A. Schwarz, D. Gunceler, Y. Ozhabes and T.A. Arias, 'JDFTx: software for joint density-functional theory', SoftwareX 6, 278 (2017)

   gga-PBE exchange-correlation functional:
      J.P. Perdew, K. Burke and M. Ernzerhof, Phys. Rev. Lett. 77, 3865 (1996)

   Pseudopotentials:
      KF Garrity, JW Bennett, KM Rabe and D Vanderbilt, Comput. Mater. Sci. 81, 446 (2014)

   DFT-D3 dispersion correction:
      S. Grimme, J. Antony, S. Ehrlich and H. Krieg, J. Chem. Phys. 132, 154104 (2010)

   DFT-D2 dispersion correction:
      S. Grimme, J. Comput. Chem. 27, 1787 (2006)

   Charge-asymmetric nonlocally-determined local-electric (CANDLE) solvation model:
      R. Sundararaman and W.A. Goddard III, J. Chem. Phys. 142, 064107 (2015)

   Total energy minimization with Auxiliary Hamiltonian:
      C. Freysoldt, S. Boeck, and J. Neugebauer, Phys. Rev. B 79, 241103(R) (2009)

   Grand-canonical (fixed-potential) DFT:
      R. Sundararaman, W. A. Goddard III and T. A. Arias, J. Chem. Phys. 146, 114104 (2017)

   Linear-tetrahedron sampling for density of states:
      G. Lehmann and M. Taut, Phys. status solidi (b) 54, 469 (1972)

This list may not be complete. Please suggest additional citations or
report any other bugs at https://github.com/shankar1729/jdftx/issues

Initialization completed successfully at t[s]:   3766.19

------ Vibrations::calculate() -------
WARNING: Vibrations module is experimental. Please report bugs!
Compare results with and without symmetries and report discrepancies.
Degrees of freedom: 12 total, 12 symmetry-independent.

Computing DFT-D3 correction:
# coordination-number C 3.299 3.322 3.335 3.331 3.311 3.287 3.316 3.534 3.329 3.313 3.301 3.327 3.303 3.300 3.323 3.627 3.267 3.301 3.319 3.334 3.326 3.302 3.300 3.328 3.335 3.319 3.299 3.265 3.533 3.323 3.301 3.304 3.320 3.300 3.312 3.328 3.638 3.328 3.288 3.312 3.332 3.333 3.321 3.300 3.012
# coordination-number N 3.172 3.179 3.170 3.180
# coordination-number Ti 7.381
# coordination-number O 2.021 1.988
# coordination-number H 1.009
# diagonal-C6 C 24.29 24.07 23.92 23.96 24.17 24.40 24.12 21.15 23.98 24.16 24.27 24.01 24.26 24.28 24.05 19.97 24.58 24.28 24.09 23.93 24.02 24.26 24.28 24.00 23.92 24.09 24.29 24.59 21.17 24.05 24.28 24.24 24.08 24.28 24.16 23.99 19.85 24.00 24.39 24.16 23.96 23.94 24.08 24.28 25.65
# diagonal-C6 N 15.60 15.60 15.60 15.60
# diagonal-C6 Ti 321.59
# diagonal-C6 O 10.40 10.41
# diagonal-C6 H 3.09
EvdW_6 =   -0.040310
EvdW_8 =   -0.032052
Fluid solver invoked on fresh (random / LCAO) wavefunctions
Running a vacuum solve first:

-------- Initial electronic minimization -----------
	FillingsUpdate:  mu: -0.188610784  nElectrons: 225.000000  magneticMoment: [ Abs: 0.00471  Tot: +0.00052 ]
ElecMinimize: Iter:   0  G: -356.204093705545802  |grad|_K:  1.441e-04  alpha:  1.000e+00
	FillingsUpdate:  mu: -0.121417391  nElectrons: 225.000000  magneticMoment: [ Abs: 0.00282  Tot: +0.00072 ]
	SubspaceRotationAdjust: set factor to 1
ElecMinimize: Iter:   1  G: -359.146995277404812  |grad|_K:  5.150e-05  alpha:  6.836e-01  linmin:  1.104e-05  t[s]:   3951.17
	FillingsUpdate:  mu: -0.059990282  nElectrons: 225.000000  magneticMoment: [ Abs: 0.00514  Tot: +0.00326 ]
	SubspaceRotationAdjust: set factor to 0.719
ElecMinimize: Iter:   2  G: -359.211839697399284  |grad|_K:  5.418e-05  alpha:  1.231e-01  linmin: -3.647e-04  t[s]:   4063.76
	FillingsUpdate:  mu: -0.087752981  nElectrons: 225.000000  magneticMoment: [ Abs: 0.00706  Tot: +0.00637 ]
	SubspaceRotationAdjust: set factor to 0.319
ElecMinimize: Iter:   3  G: -359.406229181171739  |grad|_K:  2.051e-05  alpha:  2.998e-01  linmin:  1.722e-04  t[s]:   4176.76
	FillingsUpdate:  mu: -0.063847685  nElectrons: 225.000000  magneticMoment: [ Abs: 0.01964  Tot: +0.01912 ]
	SubspaceRotationAdjust: set factor to 0.227
ElecMinimize: Iter:   4  G: -359.442615283862494  |grad|_K:  1.529e-05  alpha:  3.967e-01  linmin: -8.435e-04  t[s]:   4289.91
	FillingsUpdate:  mu: -0.081943687  nElectrons: 225.000000  magneticMoment: [ Abs: 0.02748  Tot: +0.02697 ]
	SubspaceRotationAdjust: set factor to 0.164
ElecMinimize: Iter:   5  G: -359.462316394249910  |grad|_K:  9.548e-06  alpha:  3.397e-01  linmin:  7.886e-05  t[s]:   4403.51
	FillingsUpdate:  mu: -0.079202853  nElectrons: 225.000000  magneticMoment: [ Abs: 0.04548  Tot: +0.04451 ]
	SubspaceRotationAdjust: set factor to 0.196
ElecMinimize: Iter:   6  G: -359.473100297783901  |grad|_K:  5.691e-06  alpha:  5.717e-01  linmin:  2.834e-07  t[s]:   4516.38
	FillingsUpdate:  mu: -0.065539904  nElectrons: 225.000000  magneticMoment: [ Abs: 0.07215  Tot: +0.07043 ]
	SubspaceRotationAdjust: set factor to 0.178
ElecMinimize: Iter:   7  G: -359.477184667183508  |grad|_K:  3.844e-06  alpha:  5.997e-01  linmin: -9.752e-05  t[s]:   4629.08
	FillingsUpdate:  mu: -0.070813101  nElectrons: 225.000000  magneticMoment: [ Abs: 0.09665  Tot: +0.09424 ]
	SubspaceRotationAdjust: set factor to 0.174
ElecMinimize: Iter:   8  G: -359.478424478693796  |grad|_K:  2.237e-06  alpha:  3.965e-01  linmin:  8.478e-06  t[s]:   4742.09
	FillingsUpdate:  mu: -0.070671591  nElectrons: 225.000000  magneticMoment: [ Abs: 0.15867  Tot: +0.15457 ]
	SubspaceRotationAdjust: set factor to 0.203
ElecMinimize: Iter:   9  G: -359.479231595586157  |grad|_K:  1.752e-06  alpha:  7.689e-01  linmin:  5.378e-05  t[s]:   4856.05
	FillingsUpdate:  mu: -0.067902679  nElectrons: 225.000000  magneticMoment: [ Abs: 0.25541  Tot: +0.24852 ]
	SubspaceRotationAdjust: set factor to 0.234
ElecMinimize: Iter:  10  G: -359.479681908677321  |grad|_K:  1.976e-06  alpha:  6.983e-01  linmin:  9.913e-05  t[s]:   4969.18
	FillingsUpdate:  mu: -0.071767361  nElectrons: 225.000000  magneticMoment: [ Abs: 0.45224  Tot: +0.43747 ]
	SubspaceRotationAdjust: set factor to 0.275
ElecMinimize: Iter:  11  G: -359.480309761351691  |grad|_K:  2.457e-06  alpha:  7.922e-01  linmin:  5.482e-04  t[s]:   5082.94
	FillingsUpdate:  mu: -0.073470720  nElectrons: 225.000000  magneticMoment: [ Abs: 0.54826  Tot: +0.52340 ]
	SubspaceRotationAdjust: set factor to 0.326
ElecMinimize: Iter:  12  G: -359.480637295686734  |grad|_K:  2.260e-06  alpha:  3.351e-01  linmin:  3.474e-04  t[s]:   5196.56
	FillingsUpdate:  mu: -0.073732157  nElectrons: 225.000000  magneticMoment: [ Abs: 0.58641  Tot: +0.54825 ]
	SubspaceRotationAdjust: set factor to 0.387
ElecMinimize: Iter:  13  G: -359.480900462966133  |grad|_K:  1.718e-06  alpha:  2.754e-01  linmin: -2.835e-04  t[s]:   5309.90
	FillingsUpdate:  mu: -0.073420385  nElectrons: 225.000000  magneticMoment: [ Abs: 0.61052  Tot: +0.55421 ]
	SubspaceRotationAdjust: set factor to 0.449
ElecMinimize: Iter:  14  G: -359.481146904083857  |grad|_K:  1.549e-06  alpha:  3.726e-01  linmin: -2.800e-04  t[s]:   5423.14
	FillingsUpdate:  mu: -0.074512996  nElectrons: 225.000000  magneticMoment: [ Abs: 0.64265  Tot: +0.55569 ]
	SubspaceRotationAdjust: set factor to 0.491
ElecMinimize: Iter:  15  G: -359.481414719587804  |grad|_K:  1.418e-06  alpha:  4.987e-01  linmin: -8.344e-05  t[s]:   5536.42
	FillingsUpdate:  mu: -0.074588222  nElectrons: 225.000000  magneticMoment: [ Abs: 0.67305  Tot: +0.55675 ]
	SubspaceRotationAdjust: set factor to 0.53
ElecMinimize: Iter:  16  G: -359.481587865360552  |grad|_K:  1.130e-06  alpha:  4.018e-01  linmin: -7.079e-06  t[s]:   5649.32
	FillingsUpdate:  mu: -0.072978701  nElectrons: 225.000000  magneticMoment: [ Abs: 0.70003  Tot: +0.55856 ]
	SubspaceRotationAdjust: set factor to 0.553
ElecMinimize: Iter:  17  G: -359.481703545328230  |grad|_K:  9.922e-07  alpha:  4.312e-01  linmin:  4.429e-05  t[s]:   5762.57
	FillingsUpdate:  mu: -0.073736771  nElectrons: 225.000000  magneticMoment: [ Abs: 0.71600  Tot: +0.55926 ]
	SubspaceRotationAdjust: set factor to 0.619
ElecMinimize: Iter:  18  G: -359.481785753785289  |grad|_K:  7.898e-07  alpha:  4.003e-01  linmin: -3.448e-06  t[s]:   5875.76
	FillingsUpdate:  mu: -0.074914904  nElectrons: 225.000000  magneticMoment: [ Abs: 0.72167  Tot: +0.55852 ]
	SubspaceRotationAdjust: set factor to 0.662
ElecMinimize: Iter:  19  G: -359.481840623124185  |grad|_K:  7.130e-07  alpha:  4.183e-01  linmin: -5.994e-08  t[s]:   5988.77
	FillingsUpdate:  mu: -0.073858642  nElectrons: 225.000000  magneticMoment: [ Abs: 0.72503  Tot: +0.55789 ]
	SubspaceRotationAdjust: set factor to 0.741
ElecMinimize: Iter:  20  G: -359.481884319050664  |grad|_K:  6.231e-07  alpha:  4.090e-01  linmin:  3.349e-06  t[s]:   6101.49
	FillingsUpdate:  mu: -0.073753504  nElectrons: 225.000000  magneticMoment: [ Abs: 0.72224  Tot: +0.55713 ]
	SubspaceRotationAdjust: set factor to 0.86
ElecMinimize: Iter:  21  G: -359.481915525796239  |grad|_K:  4.884e-07  alpha:  3.828e-01  linmin:  7.106e-07  t[s]:   6214.24
	FillingsUpdate:  mu: -0.073857607  nElectrons: 225.000000  magneticMoment: [ Abs: 0.71562  Tot: +0.55661 ]
	SubspaceRotationAdjust: set factor to 1.05
ElecMinimize: Iter:  22  G: -359.481934590262767  |grad|_K:  4.081e-07  alpha:  3.804e-01  linmin: -7.393e-08  t[s]:   6327.43
	FillingsUpdate:  mu: -0.073306375  nElectrons: 225.000000  magneticMoment: [ Abs: 0.70816  Tot: +0.55634 ]
	SubspaceRotationAdjust: set factor to 1.09
ElecMinimize: Iter:  23  G: -359.481946798327215  |grad|_K:  3.610e-07  alpha:  3.486e-01  linmin:  4.845e-06  t[s]:   6440.38
	FillingsUpdate:  mu: -0.074020314  nElectrons: 225.000000  magneticMoment: [ Abs: 0.69938  Tot: +0.55612 ]
	SubspaceRotationAdjust: set factor to 1.03
ElecMinimize: Iter:  24  G: -359.481954688181929  |grad|_K:  2.982e-07  alpha:  2.886e-01  linmin: -2.099e-06  t[s]:   6553.20
	FillingsUpdate:  mu: -0.073536693  nElectrons: 225.000000  magneticMoment: [ Abs: 0.69423  Tot: +0.55612 ]
	SubspaceRotationAdjust: set factor to 0.975
ElecMinimize: Iter:  25  G: -359.481959872035816  |grad|_K:  2.368e-07  alpha:  2.771e-01  linmin:  1.996e-06  t[s]:   6666.39
	FillingsUpdate:  mu: -0.073793283  nElectrons: 225.000000  magneticMoment: [ Abs: 0.68954  Tot: +0.55617 ]
	SubspaceRotationAdjust: set factor to 1.08
ElecMinimize: Iter:  26  G: -359.481964141513743  |grad|_K:  2.038e-07  alpha:  3.626e-01  linmin: -9.128e-07  t[s]:   6779.04
	FillingsUpdate:  mu: -0.073724546  nElectrons: 225.000000  magneticMoment: [ Abs: 0.68755  Tot: +0.55628 ]
	SubspaceRotationAdjust: set factor to 1.34
ElecMinimize: Iter:  27  G: -359.481967259996907  |grad|_K:  1.640e-07  alpha:  3.571e-01  linmin:  4.421e-07  t[s]:   6891.96
	FillingsUpdate:  mu: -0.073717830  nElectrons: 225.000000  magneticMoment: [ Abs: 0.68761  Tot: +0.55637 ]
	SubspaceRotationAdjust: set factor to 1.5
ElecMinimize: Iter:  28  G: -359.481969449862390  |grad|_K:  1.562e-07  alpha:  3.877e-01  linmin:  1.298e-08  t[s]:   7005.00
	FillingsUpdate:  mu: -0.073853632  nElectrons: 225.000000  magneticMoment: [ Abs: 0.68885  Tot: +0.55642 ]
	SubspaceRotationAdjust: set factor to 1.72
ElecMinimize: Iter:  29  G: -359.481971087681359  |grad|_K:  1.264e-07  alpha:  3.197e-01  linmin: -6.329e-07  t[s]:   7118.04
	FillingsUpdate:  mu: -0.073585146  nElectrons: 225.000000  magneticMoment: [ Abs: 0.69064  Tot: +0.55646 ]
	SubspaceRotationAdjust: set factor to 1.48
ElecMinimize: Iter:  30  G: -359.481971818705006  |grad|_K:  1.221e-07  alpha:  2.175e-01  linmin:  4.758e-08  t[s]:   7230.79
	FillingsUpdate:  mu: -0.073842293  nElectrons: 225.000000  magneticMoment: [ Abs: 0.69171  Tot: +0.55643 ]
	SubspaceRotationAdjust: set factor to 1.25
ElecMinimize: Iter:  31  G: -359.481972373506608  |grad|_K:  1.001e-07  alpha:  1.772e-01  linmin: -2.244e-07  t[s]:   7344.18
	FillingsUpdate:  mu: -0.073739034  nElectrons: 225.000000  magneticMoment: [ Abs: 0.69354  Tot: +0.55641 ]
	SubspaceRotationAdjust: set factor to 1.4
ElecMinimize: Iter:  32  G: -359.481972968576542  |grad|_K:  7.854e-08  alpha:  2.827e-01  linmin:  2.181e-07  t[s]:   7457.51
	FillingsUpdate:  mu: -0.073745808  nElectrons: 225.000000  magneticMoment: [ Abs: 0.69446  Tot: +0.55638 ]
	SubspaceRotationAdjust: set factor to 1.62
ElecMinimize: Iter:  33  G: -359.481973406765576  |grad|_K:  6.336e-08  alpha:  3.382e-01  linmin:  4.392e-08  t[s]:   7570.81
	FillingsUpdate:  mu: -0.073810896  nElectrons: 225.000000  magneticMoment: [ Abs: 0.69442  Tot: +0.55636 ]
	SubspaceRotationAdjust: set factor to 1.76
ElecMinimize: Iter:  34  G: -359.481973667140380  |grad|_K:  5.850e-08  alpha:  3.086e-01  linmin:  2.698e-08  t[s]:   7684.28
	FillingsUpdate:  mu: -0.073678791  nElectrons: 225.000000  magneticMoment: [ Abs: 0.69432  Tot: +0.55638 ]
	SubspaceRotationAdjust: set factor to 1.55
ElecMinimize: Iter:  35  G: -359.481973811540058  |grad|_K:  5.869e-08  alpha:  2.006e-01  linmin:  5.953e-08  t[s]:   7794.16
	FillingsUpdate:  mu: -0.073792119  nElectrons: 225.000000  magneticMoment: [ Abs: 0.69366  Tot: +0.55637 ]
	SubspaceRotationAdjust: set factor to 1.36
ElecMinimize: Iter:  36  G: -359.481973940104751  |grad|_K:  4.456e-08  alpha:  1.776e-01  linmin: -1.699e-07  t[s]:   7907.02
	FillingsUpdate:  mu: -0.073758825  nElectrons: 225.000000  magneticMoment: [ Abs: 0.69310  Tot: +0.55638 ]
	SubspaceRotationAdjust: set factor to 1.53
ElecMinimize: Iter:  37  G: -359.481974061454650  |grad|_K:  3.421e-08  alpha:  2.907e-01  linmin:  9.951e-08  t[s]:   8019.90
	FillingsUpdate:  mu: -0.073748967  nElectrons: 225.000000  magneticMoment: [ Abs: 0.69276  Tot: +0.55639 ]
	SubspaceRotationAdjust: set factor to 1.63
ElecMinimize: Iter:  38  G: -359.481974147399910  |grad|_K:  3.155e-08  alpha:  3.492e-01  linmin: -5.717e-08  t[s]:   8132.69
	FillingsUpdate:  mu: -0.073781061  nElectrons: 225.000000  magneticMoment: [ Abs: 0.69267  Tot: +0.55639 ]
	SubspaceRotationAdjust: set factor to 1.9
ElecMinimize: Iter:  39  G: -359.481974211398153  |grad|_K:  2.735e-08  alpha:  3.058e-01  linmin: -2.270e-07  t[s]:   8246.16
ElecMinimize: Converged (|Delta G|<1.000000e-07 for 2 iters).
Setting wave functions to eigenvectors of Hamiltonian
Converging empty states (this may take a while): |deigs|: 8.224e-03
Vacuum energy after initial minimize, F = -359.481974211398153

Shifting auxilliary hamiltonian by -0.053419 to set nElectrons=225.000000

-------- Electronic minimization -----------
	Linear fluid (dielectric constant: 78.4, screening length: 8.12261 Bohr) occupying 0.719489 of unit cell:	Completed after 22 iterations at t[s]:   8759.05
	FillingsUpdate:  mu: -0.127200000  nElectrons: 225.000000  magneticMoment: [ Abs: 0.69343  Tot: +0.55641 ]
ElecMinimize: Iter:   0  G: -359.482055109551254  |grad|_K:  9.086e-06  alpha:  1.000e+00
	Linear fluid (dielectric constant: 78.4, screening length: 8.12261 Bohr) occupying 0.747618 of unit cell:	Completed after 25 iterations at t[s]:   8872.53
	Linear fluid (dielectric constant: 78.4, screening length: 8.12261 Bohr) occupying 0.720386 of unit cell:	Completed after 20 iterations at t[s]:   8921.08
ElecMinimize: 	Step increased G by 5.849141e-03, reducing alpha to 1.484555e-02.
	Linear fluid (dielectric constant: 78.4, screening length: 8.12261 Bohr) occupying 0.719549 of unit cell:	Completed after 19 iterations at t[s]:   9016.11
	FillingsUpdate:  mu: -0.127200000  nElectrons: 225.040503  magneticMoment: [ Abs: 0.72802  Tot: +0.59665 ]
	SubspaceRotationAdjust: set factor to 1.23
ElecMinimize: Iter:   1  G: -359.482371054075600  |grad|_K:  5.300e-06  alpha:  1.485e-02  linmin: -2.493e-03  t[s]:   9065.52
	Linear fluid (dielectric constant: 78.4, screening length: 8.12261 Bohr) occupying 0.719587 of unit cell:	Completed after 10 iterations at t[s]:   9113.40
ElecMinimize: 	Predicted alpha/alphaT>3.000000, increasing alphaT to 4.453666e-02.
	Linear fluid (dielectric constant: 78.4, screening length: 8.12261 Bohr) occupying 0.719667 of unit cell:	Completed after 12 iterations at t[s]:   9156.63
	Linear fluid (dielectric constant: 78.4, screening length: 8.12261 Bohr) occupying 0.719936 of unit cell:	Completed after 15 iterations at t[s]:   9202.18
	FillingsUpdate:  mu: -0.127200000  nElectrons: 225.169797  magneticMoment: [ Abs: 0.82031  Tot: +0.72311 ]
	SubspaceRotationAdjust: set factor to 0.677
ElecMinimize: Iter:   2  G: -359.483517863549878  |grad|_K:  8.615e-06  alpha:  1.324e-01  linmin: -7.953e-04  t[s]:   9251.77
	Linear fluid (dielectric constant: 78.4, screening length: 8.12261 Bohr) occupying 0.724728 of unit cell:	Completed after 19 iterations at t[s]:   9307.71
	Linear fluid (dielectric constant: 78.4, screening length: 8.12261 Bohr) occupying 0.720051 of unit cell:	Completed after 18 iterations at t[s]:   9355.12
	FillingsUpdate:  mu: -0.127200000  nElectrons: 225.190008  magneticMoment: [ Abs: 0.82469  Tot: +0.73773 ]
	SubspaceRotationAdjust: set factor to 0.566
ElecMinimize: Iter:   3  G: -359.484179293282352  |grad|_K:  3.520e-06  alpha:  2.090e-02  linmin: -1.784e-03  t[s]:   9406.92
	Linear fluid (dielectric constant: 78.4, screening length: 8.12261 Bohr) occupying 0.720054 of unit cell:	Completed after 8 iterations at t[s]:   9453.76
	Linear fluid (dielectric constant: 78.4, screening length: 8.12261 Bohr) occupying 0.720061 of unit cell:	Completed after 10 iterations at t[s]:   9496.16
	FillingsUpdate:  mu: -0.127200000  nElectrons: 225.181206  magneticMoment: [ Abs: 0.80711  Tot: +0.72333 ]
	SubspaceRotationAdjust: set factor to 0.359
ElecMinimize: Iter:   4  G: -359.484419835133394  |grad|_K:  2.858e-06  alpha:  5.558e-02  linmin:  5.067e-05  t[s]:   9545.87
	Linear fluid (dielectric constant: 78.4, screening length: 8.12261 Bohr) occupying 0.720119 of unit cell:	Completed after 8 iterations at t[s]:   9594.85
	Linear fluid (dielectric constant: 78.4, screening length: 8.12261 Bohr) occupying 0.720234 of unit cell:	Completed after 11 iterations at t[s]:   9637.50
	FillingsUpdate:  mu: -0.127200000  nElectrons: 225.210870  magneticMoment: [ Abs: 0.81109  Tot: +0.73198 ]
	SubspaceRotationAdjust: set factor to 0.221
	SubspaceRotationAdjust: resetting CG because factor has changed by 0.115939
	Linear fluid (dielectric constant: 78.4, screening length: 8.12261 Bohr) occupying 0.720234 of unit cell:	Completed after 0 iterations at t[s]:   9708.78
ElecMinimize: 	State modified externally: resetting search direction.
ElecMinimize: Iter:   5  G: -359.484661730778555  |grad|_K:  3.385e-06  alpha:  1.523e-01
	Linear fluid (dielectric constant: 78.4, screening length: 8.12261 Bohr) occupying 0.720354 of unit cell:	Completed after 14 iterations at t[s]:   9809.04
	Linear fluid (dielectric constant: 78.4, screening length: 8.12261 Bohr) occupying 0.720364 of unit cell:	Completed after 4 iterations at t[s]:   9847.53
	FillingsUpdate:  mu: -0.127200000  nElectrons: 225.243939  magneticMoment: [ Abs: 0.84661  Tot: +0.76673 ]
	SubspaceRotationAdjust: set factor to 0.153
ElecMinimize: Iter:   6  G: -359.485059393716313  |grad|_K:  1.476e-06  alpha:  1.649e-01  linmin: -5.389e-04  t[s]:   9898.02
	Linear fluid (dielectric constant: 78.4, screening length: 8.12261 Bohr) occupying 0.720364 of unit cell:	Completed after 8 iterations at t[s]:   9945.22
ElecMinimize: 	Predicted alpha/alphaT>3.000000, increasing alphaT to 4.947810e-01.
	Linear fluid (dielectric constant: 78.4, screening length: 8.12261 Bohr) occupying 0.720365 of unit cell:	Completed after 10 iterations at t[s]:   9987.50
	Linear fluid (dielectric constant: 78.4, screening length: 8.12261 Bohr) occupying 0.720367 of unit cell:	Completed after 10 iterations at t[s]:  10029.94
	FillingsUpdate:  mu: -0.127200000  nElectrons: 225.221492  magneticMoment: [ Abs: 0.84778  Tot: +0.75752 ]
	SubspaceRotationAdjust: set factor to 0.162
ElecMinimize: Iter:   7  G: -359.485482067189082  |grad|_K:  8.948e-07  alpha:  9.114e-01  linmin: -1.853e-04  t[s]:  10079.58
	Linear fluid (dielectric constant: 78.4, screening length: 8.12261 Bohr) occupying 0.720398 of unit cell:	Completed after 9 iterations at t[s]:  10129.39
	Linear fluid (dielectric constant: 78.4, screening length: 8.12261 Bohr) occupying 0.720392 of unit cell:	Completed after 3 iterations at t[s]:  10167.20
	FillingsUpdate:  mu: -0.127200000  nElectrons: 225.212594  magneticMoment: [ Abs: 0.84577  Tot: +0.75196 ]
	SubspaceRotationAdjust: set factor to 0.164
ElecMinimize: Iter:   8  G: -359.485605121140850  |grad|_K:  5.319e-07  alpha:  7.245e-01  linmin: -7.277e-05  t[s]:  10218.95
	Linear fluid (dielectric constant: 78.4, screening length: 8.12261 Bohr) occupying 0.720450 of unit cell:	Completed after 11 iterations at t[s]:  10269.68
	Linear fluid (dielectric constant: 78.4, screening length: 8.12261 Bohr) occupying 0.720435 of unit cell:	Completed after 6 iterations at t[s]:  10310.16
	FillingsUpdate:  mu: -0.127200000  nElectrons: 225.218959  magneticMoment: [ Abs: 0.85326  Tot: +0.75918 ]
	SubspaceRotationAdjust: set factor to 0.129
ElecMinimize: Iter:   9  G: -359.485637428644623  |grad|_K:  4.715e-07  alpha:  5.419e-01  linmin: -2.321e-05  t[s]:  10359.84
	Linear fluid (dielectric constant: 78.4, screening length: 8.12261 Bohr) occupying 0.720421 of unit cell:	Completed after 7 iterations at t[s]:  10406.21
	Linear fluid (dielectric constant: 78.4, screening length: 8.12261 Bohr) occupying 0.720427 of unit cell:	Completed after 4 iterations at t[s]:  10444.74
	FillingsUpdate:  mu: -0.127200000  nElectrons: 225.213709  magneticMoment: [ Abs: 0.84934  Tot: +0.75469 ]
	SubspaceRotationAdjust: set factor to 0.115
ElecMinimize: Iter:  10  G: -359.485652879222016  |grad|_K:  2.529e-07  alpha:  3.302e-01  linmin: -2.298e-06  t[s]:  10494.55
	Linear fluid (dielectric constant: 78.4, screening length: 8.12261 Bohr) occupying 0.720429 of unit cell:	Completed after 2 iterations at t[s]:  10537.87
	Linear fluid (dielectric constant: 78.4, screening length: 8.12261 Bohr) occupying 0.720433 of unit cell:	Completed after 2 iterations at t[s]:  10575.25
	FillingsUpdate:  mu: -0.127200000  nElectrons: 225.211726  magneticMoment: [ Abs: 0.84935  Tot: +0.75373 ]
	SubspaceRotationAdjust: set factor to 0.143
ElecMinimize: Iter:  11  G: -359.485664361317390  |grad|_K:  1.862e-07  alpha:  8.536e-01  linmin: -2.995e-05  t[s]:  10627.87
	Linear fluid (dielectric constant: 78.4, screening length: 8.12261 Bohr) occupying 0.720439 of unit cell:	Completed after 3 iterations at t[s]:  10671.48
	Linear fluid (dielectric constant: 78.4, screening length: 8.12261 Bohr) occupying 0.720437 of unit cell:	Completed after 1 iterations at t[s]:  10708.02
	FillingsUpdate:  mu: -0.127200000  nElectrons: 225.211618  magneticMoment: [ Abs: 0.85055  Tot: +0.75417 ]
	SubspaceRotationAdjust: set factor to 0.169
ElecMinimize: Iter:  12  G: -359.485668732976933  |grad|_K:  1.497e-07  alpha:  5.975e-01  linmin:  2.049e-05  t[s]:  10759.85
	Linear fluid (dielectric constant: 78.4, screening length: 8.12261 Bohr) occupying 0.720438 of unit cell:	Completed after 2 iterations at t[s]:  10804.80
	Linear fluid (dielectric constant: 78.4, screening length: 8.12261 Bohr) occupying 0.720438 of unit cell:	Completed after 0 iterations at t[s]:  10839.92
	FillingsUpdate:  mu: -0.127200000  nElectrons: 225.211091  magneticMoment: [ Abs: 0.85171  Tot: +0.75427 ]
	SubspaceRotationAdjust: set factor to 0.207
ElecMinimize: Iter:  13  G: -359.485672201595605  |grad|_K:  1.178e-07  alpha:  7.362e-01  linmin: -8.731e-05  t[s]:  10890.58
	Linear fluid (dielectric constant: 78.4, screening length: 8.12261 Bohr) occupying 0.720437 of unit cell:	Completed after 2 iterations at t[s]:  10934.68
	Linear fluid (dielectric constant: 78.4, screening length: 8.12261 Bohr) occupying 0.720437 of unit cell:	Completed after 0 iterations at t[s]:  10969.81
	FillingsUpdate:  mu: -0.127200000  nElectrons: 225.210733  magneticMoment: [ Abs: 0.85301  Tot: +0.75452 ]
	SubspaceRotationAdjust: set factor to 0.242
ElecMinimize: Iter:  14  G: -359.485674599884078  |grad|_K:  9.842e-08  alpha:  8.060e-01  linmin: -3.034e-05  t[s]:  11021.64
	Linear fluid (dielectric constant: 78.4, screening length: 8.12261 Bohr) occupying 0.720429 of unit cell:	Completed after 3 iterations at t[s]:  11066.51
	Linear fluid (dielectric constant: 78.4, screening length: 8.12261 Bohr) occupying 0.720432 of unit cell:	Completed after 1 iterations at t[s]:  11103.79
	FillingsUpdate:  mu: -0.127200000  nElectrons: 225.209296  magneticMoment: [ Abs: 0.85256  Tot: +0.75342 ]
	SubspaceRotationAdjust: set factor to 0.184
ElecMinimize: Iter:  15  G: -359.485675684774264  |grad|_K:  1.133e-07  alpha:  5.211e-01  linmin:  1.145e-04  t[s]:  11154.05
	Linear fluid (dielectric constant: 78.4, screening length: 8.12261 Bohr) occupying 0.720440 of unit cell:	Completed after 3 iterations at t[s]:  11198.23
	Linear fluid (dielectric constant: 78.4, screening length: 8.12261 Bohr) occupying 0.720437 of unit cell:	Completed after 3 iterations at t[s]:  11238.08
	FillingsUpdate:  mu: -0.127200000  nElectrons: 225.210557  magneticMoment: [ Abs: 0.85452  Tot: +0.75492 ]
	SubspaceRotationAdjust: set factor to 0.118
ElecMinimize: Iter:  16  G: -359.485676416483614  |grad|_K:  6.186e-08  alpha:  2.928e-01  linmin:  4.347e-05  t[s]:  11287.83
	Linear fluid (dielectric constant: 78.4, screening length: 8.12261 Bohr) occupying 0.720437 of unit cell:	Completed after 0 iterations at t[s]:  11329.21
	Linear fluid (dielectric constant: 78.4, screening length: 8.12261 Bohr) occupying 0.720437 of unit cell:	Completed after 1 iterations at t[s]:  11366.01
	FillingsUpdate:  mu: -0.127200000  nElectrons: 225.210481  magneticMoment: [ Abs: 0.85505  Tot: +0.75498 ]
	SubspaceRotationAdjust: set factor to 0.124
ElecMinimize: Iter:  17  G: -359.485676866672407  |grad|_K:  4.723e-08  alpha:  6.716e-01  linmin:  2.841e-04  t[s]:  11415.56
	Linear fluid (dielectric constant: 78.4, screening length: 8.12261 Bohr) occupying 0.720438 of unit cell:	Completed after 0 iterations at t[s]:  11457.68
	Linear fluid (dielectric constant: 78.4, screening length: 8.12261 Bohr) occupying 0.720438 of unit cell:	Completed after 0 iterations at t[s]:  11493.15
	FillingsUpdate:  mu: -0.127200000  nElectrons: 225.210476  magneticMoment: [ Abs: 0.85536  Tot: +0.75503 ]
	SubspaceRotationAdjust: set factor to 0.128
ElecMinimize: Iter:  18  G: -359.485677063650542  |grad|_K:  2.769e-08  alpha:  4.940e-01  linmin: -3.017e-05  t[s]:  11542.94
	Linear fluid (dielectric constant: 78.4, screening length: 8.12261 Bohr) occupying 0.720438 of unit cell:	Completed after 0 iterations at t[s]:  11584.12
	Linear fluid (dielectric constant: 78.4, screening length: 8.12261 Bohr) occupying 0.720438 of unit cell:	Completed after 0 iterations at t[s]:  11620.17
	FillingsUpdate:  mu: -0.127200000  nElectrons: 225.210517  magneticMoment: [ Abs: 0.85560  Tot: +0.75507 ]
	SubspaceRotationAdjust: set factor to 0.135
ElecMinimize: Iter:  19  G: -359.485677162811101  |grad|_K:  1.865e-08  alpha:  6.568e-01  linmin:  3.826e-05  t[s]:  11669.87
	Linear fluid (dielectric constant: 78.4, screening length: 8.12261 Bohr) occupying 0.720439 of unit cell:	Completed after 0 iterations at t[s]:  11711.39
	Linear fluid (dielectric constant: 78.4, screening length: 8.12261 Bohr) occupying 0.720439 of unit cell:	Completed after 0 iterations at t[s]:  11746.87
	FillingsUpdate:  mu: -0.127200000  nElectrons: 225.210631  magneticMoment: [ Abs: 0.85583  Tot: +0.75516 ]
	SubspaceRotationAdjust: set factor to 0.149
ElecMinimize: Iter:  20  G: -359.485677211325878  |grad|_K:  1.515e-08  alpha:  6.744e-01  linmin:  1.589e-06  t[s]:  11796.65
ElecMinimize: Converged (|Delta G|<1.000000e-07 for 2 iters).
Setting wave functions to eigenvectors of Hamiltonian
Converging empty states (this may take a while): |deigs|: 7.218e-04
Single-point solvation energy estimate, DeltaG = -0.003702999927725

Computing DFT-D3 correction:
# coordination-number C 3.299 3.322 3.335 3.331 3.311 3.287 3.316 3.534 3.329 3.313 3.301 3.327 3.303 3.300 3.323 3.627 3.267 3.301 3.319 3.334 3.326 3.302 3.300 3.328 3.335 3.319 3.299 3.265 3.533 3.323 3.301 3.304 3.320 3.300 3.312 3.328 3.638 3.328 3.288 3.312 3.332 3.333 3.321 3.300 3.012
# coordination-number N 3.172 3.179 3.170 3.180
# coordination-number Ti 7.381
# coordination-number O 2.021 1.988
# coordination-number H 1.009
# diagonal-C6 C 24.29 24.07 23.92 23.96 24.17 24.40 24.12 21.15 23.98 24.16 24.27 24.01 24.26 24.28 24.05 19.97 24.58 24.28 24.09 23.93 24.02 24.26 24.28 24.00 23.92 24.09 24.29 24.59 21.17 24.05 24.28 24.24 24.08 24.28 24.16 23.99 19.85 24.00 24.39 24.16 23.96 23.94 24.08 24.28 25.65
# diagonal-C6 N 15.60 15.60 15.60 15.60
# diagonal-C6 Ti 321.59
# diagonal-C6 O 10.40 10.41
# diagonal-C6 H 3.09
EvdW_6 =   -0.040310
EvdW_8 =   -0.032052
Completed 1 of 13 configurations.

Computing DFT-D3 correction:
# coordination-number C 3.299 3.322 3.335 3.331 3.311 3.287 3.316 3.534 3.329 3.313 3.301 3.327 3.303 3.300 3.323 3.627 3.267 3.301 3.319 3.334 3.326 3.302 3.300 3.328 3.335 3.319 3.299 3.265 3.533 3.323 3.301 3.304 3.320 3.300 3.312 3.328 3.638 3.328 3.288 3.312 3.332 3.333 3.321 3.300 3.012
# coordination-number N 3.172 3.179 3.170 3.180
# coordination-number Ti 7.381
# coordination-number O 2.021 1.988
# coordination-number H 1.008
# diagonal-C6 C 24.29 24.07 23.92 23.96 24.17 24.40 24.12 21.15 23.98 24.16 24.27 24.01 24.26 24.28 24.05 19.97 24.58 24.28 24.09 23.93 24.02 24.26 24.28 24.00 23.92 24.09 24.29 24.59 21.17 24.05 24.28 24.24 24.08 24.28 24.16 23.99 19.85 24.00 24.39 24.16 23.96 23.94 24.08 24.28 25.65
# diagonal-C6 N 15.60 15.60 15.60 15.60
# diagonal-C6 Ti 321.59
# diagonal-C6 O 10.40 10.41
# diagonal-C6 H 3.09
EvdW_6 =   -0.040310
EvdW_8 =   -0.032053
Shifting auxilliary hamiltonian by 0.000013 to set nElectrons=225.210631

-------- Electronic minimization -----------
	Linear fluid (dielectric constant: 78.4, screening length: 8.12261 Bohr) occupying 0.720434 of unit cell:	Completed after 5 iterations at t[s]:  12391.17
	FillingsUpdate:  mu: -0.127200000  nElectrons: 225.210631  magneticMoment: [ Abs: 0.85608  Tot: +0.75505 ]
ElecMinimize: Iter:   0  G: -359.485634741815318  |grad|_K:  3.729e-07  alpha:  1.000e+00
	Linear fluid (dielectric constant: 78.4, screening length: 8.12261 Bohr) occupying 0.720430 of unit cell:	Completed after 3 iterations at t[s]:  12491.15
	Linear fluid (dielectric constant: 78.4, screening length: 8.12261 Bohr) occupying 0.720431 of unit cell:	Completed after 3 iterations at t[s]:  12529.05
	FillingsUpdate:  mu: -0.127200000  nElectrons: 225.209520  magneticMoment: [ Abs: 0.85502  Tot: +0.75394 ]
	SubspaceRotationAdjust: set factor to 0.16
ElecMinimize: Iter:   1  G: -359.485655018469913  |grad|_K:  1.652e-07  alpha:  6.934e-01  linmin:  6.248e-05  t[s]:  12578.76
	Linear fluid (dielectric constant: 78.4, screening length: 8.12261 Bohr) occupying 0.720436 of unit cell:	Completed after 3 iterations at t[s]:  12623.01
	Linear fluid (dielectric constant: 78.4, screening length: 8.12261 Bohr) occupying 0.720435 of unit cell:	Completed after 2 iterations at t[s]:  12660.10
	FillingsUpdate:  mu: -0.127200000  nElectrons: 225.211039  magneticMoment: [ Abs: 0.85647  Tot: +0.75544 ]
	SubspaceRotationAdjust: set factor to 0.143
ElecMinimize: Iter:   2  G: -359.485658220746075  |grad|_K:  1.539e-07  alpha:  5.615e-01  linmin:  1.258e-04  t[s]:  12709.73
	Linear fluid (dielectric constant: 78.4, screening length: 8.12261 Bohr) occupying 0.720424 of unit cell:	Completed after 4 iterations at t[s]:  12754.14
	Linear fluid (dielectric constant: 78.4, screening length: 8.12261 Bohr) occupying 0.720428 of unit cell:	Completed after 2 iterations at t[s]:  12791.54
	FillingsUpdate:  mu: -0.127200000  nElectrons: 225.209159  magneticMoment: [ Abs: 0.85468  Tot: +0.75356 ]
	SubspaceRotationAdjust: set factor to 0.116
ElecMinimize: Iter:   3  G: -359.485660036282241  |grad|_K:  9.226e-08  alpha:  3.722e-01  linmin:  6.318e-05  t[s]:  12841.20
	Linear fluid (dielectric constant: 78.4, screening length: 8.12261 Bohr) occupying 0.720428 of unit cell:	Completed after 1 iterations at t[s]:  12883.81
	Linear fluid (dielectric constant: 78.4, screening length: 8.12261 Bohr) occupying 0.720428 of unit cell:	Completed after 1 iterations at t[s]:  12920.24
	FillingsUpdate:  mu: -0.127200000  nElectrons: 225.209358  magneticMoment: [ Abs: 0.85485  Tot: +0.75374 ]
	SubspaceRotationAdjust: set factor to 0.171
ElecMinimize: Iter:   4  G: -359.485661301564505  |grad|_K:  5.045e-08  alpha:  7.105e-01  linmin: -1.438e-04  t[s]:  12970.20
	Linear fluid (dielectric constant: 78.4, screening length: 8.12261 Bohr) occupying 0.720429 of unit cell:	Completed after 0 iterations at t[s]:  13012.75
	Linear fluid (dielectric constant: 78.4, screening length: 8.12261 Bohr) occupying 0.720429 of unit cell:	Completed after 1 iterations at t[s]:  13049.20
	FillingsUpdate:  mu: -0.127200000  nElectrons: 225.209332  magneticMoment: [ Abs: 0.85478  Tot: +0.75369 ]
	SubspaceRotationAdjust: set factor to 0.206
ElecMinimize: Iter:   5  G: -359.485661925939780  |grad|_K:  5.269e-08  alpha:  1.211e+00  linmin:  1.099e-04  t[s]:  13099.30
	Linear fluid (dielectric constant: 78.4, screening length: 8.12261 Bohr) occupying 0.720426 of unit cell:	Completed after 2 iterations at t[s]:  13142.32
	Linear fluid (dielectric constant: 78.4, screening length: 8.12261 Bohr) occupying 0.720427 of unit cell:	Completed after 1 iterations at t[s]:  13178.69
	FillingsUpdate:  mu: -0.127200000  nElectrons: 225.208648  magneticMoment: [ Abs: 0.85408  Tot: +0.75298 ]
	SubspaceRotationAdjust: set factor to 0.199
ElecMinimize: Iter:   6  G: -359.485662335535778  |grad|_K:  6.637e-08  alpha:  7.117e-01  linmin:  1.188e-04  t[s]:  13228.42
	Linear fluid (dielectric constant: 78.4, screening length: 8.12261 Bohr) occupying 0.720433 of unit cell:	Completed after 2 iterations at t[s]:  13271.89
	Linear fluid (dielectric constant: 78.4, screening length: 8.12261 Bohr) occupying 0.720429 of unit cell:	Completed after 2 iterations at t[s]:  13309.09
	FillingsUpdate:  mu: -0.127200000  nElectrons: 225.209159  magneticMoment: [ Abs: 0.85454  Tot: +0.75347 ]
	SubspaceRotationAdjust: set factor to 0.133
ElecMinimize: Iter:   7  G: -359.485662546295430  |grad|_K:  4.923e-08  alpha:  2.840e-01  linmin:  1.073e-04  t[s]:  13358.76
	Linear fluid (dielectric constant: 78.4, screening length: 8.12261 Bohr) occupying 0.720428 of unit cell:	Completed after 1 iterations at t[s]:  13401.51
	Linear fluid (dielectric constant: 78.4, screening length: 8.12261 Bohr) occupying 0.720428 of unit cell:	Completed after 0 iterations at t[s]:  13436.65
	FillingsUpdate:  mu: -0.127200000  nElectrons: 225.208746  magneticMoment: [ Abs: 0.85412  Tot: +0.75304 ]
	SubspaceRotationAdjust: set factor to 0.217
ElecMinimize: Iter:   8  G: -359.485662719282004  |grad|_K:  2.733e-08  alpha:  3.446e-01  linmin: -4.153e-04  t[s]:  13486.30
	Linear fluid (dielectric constant: 78.4, screening length: 8.12261 Bohr) occupying 0.720427 of unit cell:	Completed after 2 iterations at t[s]:  13529.49
	Linear fluid (dielectric constant: 78.4, screening length: 8.12261 Bohr) occupying 0.720427 of unit cell:	Completed after 0 iterations at t[s]:  13564.51
	FillingsUpdate:  mu: -0.127200000  nElectrons: 225.208514  magneticMoment: [ Abs: 0.85389  Tot: +0.75281 ]
	SubspaceRotationAdjust: set factor to 0.185
ElecMinimize: Iter:   9  G: -359.485662741832982  |grad|_K:  3.787e-08  alpha:  2.073e-01  linmin: -1.264e-04  t[s]:  13614.35
	Linear fluid (dielectric constant: 78.4, screening length: 8.12261 Bohr) occupying 0.720428 of unit cell:	Completed after 0 iterations at t[s]:  13655.79
	Linear fluid (dielectric constant: 78.4, screening length: 8.12261 Bohr) occupying 0.720428 of unit cell:	Completed after 0 iterations at t[s]:  13690.84
	FillingsUpdate:  mu: -0.127200000  nElectrons: 225.208557  magneticMoment: [ Abs: 0.85393  Tot: +0.75286 ]
	SubspaceRotationAdjust: set factor to 0.149
ElecMinimize: Iter:  10  G: -359.485662822556549  |grad|_K:  3.443e-08  alpha:  2.538e-01  linmin: -2.626e-06  t[s]:  13740.93
ElecMinimize: Converged (|Delta G|<1.000000e-07 for 2 iters).
Setting wave functions to eigenvectors of Hamiltonian
Converging empty states (this may take a while): |deigs|: 1.372e-08

Computing DFT-D3 correction:
# coordination-number C 3.299 3.322 3.335 3.331 3.311 3.287 3.316 3.534 3.329 3.313 3.301 3.327 3.303 3.300 3.323 3.627 3.267 3.301 3.319 3.334 3.326 3.302 3.300 3.328 3.335 3.319 3.299 3.265 3.533 3.323 3.301 3.304 3.320 3.300 3.312 3.328 3.638 3.328 3.288 3.312 3.332 3.333 3.321 3.300 3.012
# coordination-number N 3.172 3.179 3.170 3.180
# coordination-number Ti 7.381
# coordination-number O 2.021 1.988
# coordination-number H 1.008
# diagonal-C6 C 24.29 24.07 23.92 23.96 24.17 24.40 24.12 21.15 23.98 24.16 24.27 24.01 24.26 24.28 24.05 19.97 24.58 24.28 24.09 23.93 24.02 24.26 24.28 24.00 23.92 24.09 24.29 24.59 21.17 24.05 24.28 24.24 24.08 24.28 24.16 23.99 19.85 24.00 24.39 24.16 23.96 23.94 24.08 24.28 25.65
# diagonal-C6 N 15.60 15.60 15.60 15.60
# diagonal-C6 Ti 321.59
# diagonal-C6 O 10.40 10.41
# diagonal-C6 H 3.09
EvdW_6 =   -0.040310
EvdW_8 =   -0.032053
Completed 2 of 13 configurations.

Computing DFT-D3 correction:
# coordination-number C 3.299 3.322 3.335 3.331 3.311 3.287 3.316 3.534 3.329 3.313 3.301 3.327 3.303 3.300 3.323 3.627 3.267 3.301 3.319 3.334 3.326 3.302 3.300 3.328 3.335 3.319 3.299 3.265 3.533 3.323 3.301 3.304 3.320 3.300 3.312 3.328 3.638 3.328 3.288 3.312 3.332 3.333 3.321 3.300 3.012
# coordination-number N 3.172 3.179 3.170 3.180
# coordination-number Ti 7.381
# coordination-number O 2.021 1.988
# coordination-number H 1.009
# diagonal-C6 C 24.29 24.07 23.92 23.96 24.17 24.40 24.12 21.15 23.98 24.16 24.27 24.01 24.26 24.28 24.05 19.97 24.58 24.28 24.09 23.93 24.02 24.26 24.28 24.00 23.92 24.09 24.29 24.59 21.17 24.05 24.28 24.24 24.08 24.28 24.16 23.99 19.85 24.00 24.39 24.16 23.96 23.94 24.08 24.28 25.65
# diagonal-C6 N 15.60 15.60 15.60 15.60
# diagonal-C6 Ti 321.59
# diagonal-C6 O 10.40 10.41
# diagonal-C6 H 3.09
EvdW_6 =   -0.040310
EvdW_8 =   -0.032052
Shifting auxilliary hamiltonian by 0.000096 to set nElectrons=225.208557

-------- Electronic minimization -----------
	Linear fluid (dielectric constant: 78.4, screening length: 8.12261 Bohr) occupying 0.720447 of unit cell:	Completed after 6 iterations at t[s]:  13917.21
	FillingsUpdate:  mu: -0.127200000  nElectrons: 225.208557  magneticMoment: [ Abs: 0.85558  Tot: +0.75381 ]
ElecMinimize: Iter:   0  G: -359.485587030901456  |grad|_K:  6.581e-07  alpha:  1.000e+00
	Linear fluid (dielectric constant: 78.4, screening length: 8.12261 Bohr) occupying 0.720406 of unit cell:	Completed after 11 iterations at t[s]:  14024.36
	Linear fluid (dielectric constant: 78.4, screening length: 8.12261 Bohr) occupying 0.720426 of unit cell:	Completed after 8 iterations at t[s]:  14065.33
	FillingsUpdate:  mu: -0.127200000  nElectrons: 225.202650  magneticMoment: [ Abs: 0.84971  Tot: +0.74783 ]
	SubspaceRotationAdjust: set factor to 0.115
ElecMinimize: Iter:   1  G: -359.485633049240391  |grad|_K:  4.695e-07  alpha:  5.045e-01  linmin:  1.638e-05  t[s]:  14115.39
	Linear fluid (dielectric constant: 78.4, screening length: 8.12261 Bohr) occupying 0.720462 of unit cell:	Completed after 9 iterations at t[s]:  14163.14
	Linear fluid (dielectric constant: 78.4, screening length: 8.12261 Bohr) occupying 0.720447 of unit cell:	Completed after 6 iterations at t[s]:  14203.12
	FillingsUpdate:  mu: -0.127200000  nElectrons: 225.208135  magneticMoment: [ Abs: 0.85469  Tot: +0.75315 ]
	SubspaceRotationAdjust: set factor to 0.0816
ElecMinimize: Iter:   2  G: -359.485646715987116  |grad|_K:  2.079e-07  alpha:  2.964e-01  linmin:  1.496e-04  t[s]:  14252.89
	Linear fluid (dielectric constant: 78.4, screening length: 8.12261 Bohr) occupying 0.720449 of unit cell:	Completed after 2 iterations at t[s]:  14296.19
	Linear fluid (dielectric constant: 78.4, screening length: 8.12261 Bohr) occupying 0.720452 of unit cell:	Completed after 2 iterations at t[s]:  14333.22
	FillingsUpdate:  mu: -0.127200000  nElectrons: 225.209026  magneticMoment: [ Abs: 0.85533  Tot: +0.75391 ]
	SubspaceRotationAdjust: set factor to 0.103
ElecMinimize: Iter:   3  G: -359.485653510918155  |grad|_K:  1.269e-07  alpha:  7.497e-01  linmin: -8.520e-05  t[s]:  14382.80
	Linear fluid (dielectric constant: 78.4, screening length: 8.12261 Bohr) occupying 0.720453 of unit cell:	Completed after 3 iterations at t[s]:  14426.96
	Linear fluid (dielectric constant: 78.4, screening length: 8.12261 Bohr) occupying 0.720453 of unit cell:	Completed after 0 iterations at t[s]:  14462.16
	FillingsUpdate:  mu: -0.127200000  nElectrons: 225.209022  magneticMoment: [ Abs: 0.85523  Tot: +0.75382 ]
	SubspaceRotationAdjust: set factor to 0.124
ElecMinimize: Iter:   4  G: -359.485656111909918  |grad|_K:  7.549e-08  alpha:  7.651e-01  linmin: -1.352e-04  t[s]:  14512.24
	Linear fluid (dielectric constant: 78.4, screening length: 8.12261 Bohr) occupying 0.720457 of unit cell:	Completed after 2 iterations at t[s]:  14555.40
	Linear fluid (dielectric constant: 78.4, screening length: 8.12261 Bohr) occupying 0.720457 of unit cell:	Completed after 0 iterations at t[s]:  14590.70
	FillingsUpdate:  mu: -0.127200000  nElectrons: 225.210536  magneticMoment: [ Abs: 0.85658  Tot: +0.75524 ]
	SubspaceRotationAdjust: set factor to 0.135
ElecMinimize: Iter:   5  G: -359.485657051381509  |grad|_K:  8.260e-08  alpha:  7.787e-01  linmin: -7.846e-06  t[s]:  14640.60
	Linear fluid (dielectric constant: 78.4, screening length: 8.12261 Bohr) occupying 0.720456 of unit cell:	Completed after 2 iterations at t[s]:  14684.04
	Linear fluid (dielectric constant: 78.4, screening length: 8.12261 Bohr) occupying 0.720456 of unit cell:	Completed after 0 iterations at t[s]:  14719.08
	FillingsUpdate:  mu: -0.127200000  nElectrons: 225.210867  magneticMoment: [ Abs: 0.85676  Tot: +0.75545 ]
	SubspaceRotationAdjust: set factor to 0.135
ElecMinimize: Iter:   6  G: -359.485657979334860  |grad|_K:  7.863e-08  alpha:  6.345e-01  linmin:  3.057e-04  t[s]:  14768.78
	Linear fluid (dielectric constant: 78.4, screening length: 8.12261 Bohr) occupying 0.720460 of unit cell:	Completed after 3 iterations at t[s]:  14813.02
	Linear fluid (dielectric constant: 78.4, screening length: 8.12261 Bohr) occupying 0.720460 of unit cell:	Completed after 0 iterations at t[s]:  14848.04
	FillingsUpdate:  mu: -0.127200000  nElectrons: 225.212711  magneticMoment: [ Abs: 0.85836  Tot: +0.75715 ]
	SubspaceRotationAdjust: set factor to 0.124
ElecMinimize: Iter:   7  G: -359.485658805015987  |grad|_K:  6.130e-08  alpha:  6.839e-01  linmin: -4.221e-04  t[s]:  14897.61
	Linear fluid (dielectric constant: 78.4, screening length: 8.12261 Bohr) occupying 0.720458 of unit cell:	Completed after 2 iterations at t[s]:  14940.81
	Linear fluid (dielectric constant: 78.4, screening length: 8.12261 Bohr) occupying 0.720458 of unit cell:	Completed after 0 iterations at t[s]:  14975.82
	FillingsUpdate:  mu: -0.127200000  nElectrons: 225.212683  magneticMoment: [ Abs: 0.85827  Tot: +0.75704 ]
	SubspaceRotationAdjust: set factor to 0.0977
ElecMinimize: Iter:   8  G: -359.485659338608684  |grad|_K:  5.216e-08  alpha:  6.072e-01  linmin:  2.328e-04  t[s]:  15025.85
	Linear fluid (dielectric constant: 78.4, screening length: 8.12261 Bohr) occupying 0.720459 of unit cell:	Completed after 3 iterations at t[s]:  15069.68
	Linear fluid (dielectric constant: 78.4, screening length: 8.12261 Bohr) occupying 0.720459 of unit cell:	Completed after 0 iterations at t[s]:  15105.05
	FillingsUpdate:  mu: -0.127200000  nElectrons: 225.213552  magneticMoment: [ Abs: 0.85907  Tot: +0.75787 ]
	SubspaceRotationAdjust: set factor to 0.0723
[...]
disp C   0.000000000000000   0.000000000000000   0.000000000000000
disp C   0.000000000000000   0.000000000000000   0.000000000000000
disp C   0.000000000000000   0.000000000000000   0.000000000000000
disp C   0.000000000000000   0.000000000000000   0.000000000000000
disp C   0.000000000000000   0.000000000000000   0.000000000000000
disp C   0.000000000000000   0.000000000000000   0.000000000000000
disp C   0.000000000000000   0.000000000000000   0.000000000000000
disp C   0.000000000000000   0.000000000000000   0.000000000000000
disp C   0.000000000000000   0.000000000000000   0.000000000000000
disp C   0.000000000000000   0.000000000000000   0.000000000000000
disp C   0.000940093431421  -0.001060562793143   0.002363931063832
disp N   0.000000000000000   0.000000000000000   0.000000000000000
disp N   0.000000000000000   0.000000000000000   0.000000000000000
disp N   0.000000000000000   0.000000000000000   0.000000000000000
disp N   0.000000000000000   0.000000000000000   0.000000000000000
disp Ti   0.000000000000000   0.000000000000000   0.000000000000000
disp O  -0.001251686488030   0.001174489758244   0.002427984466370
disp O   0.000813729878862  -0.000731903770383  -0.003199259851271
disp H   0.005572655279893   0.008695814854728  -0.005023833759319

Real mode 8:
Frequency: 0.004848 Eh [ 1064 cm^-1 ]
Degeneracy: 1 of 1
IR intensity: 0.7650 e^2/amu [ 745.8 km/mol ]
Displacements:
disp C   0.000000000000000   0.000000000000000   0.000000000000000
disp C   0.000000000000000   0.000000000000000   0.000000000000000
disp C   0.000000000000000   0.000000000000000   0.000000000000000
disp C   0.000000000000000   0.000000000000000   0.000000000000000
disp C   0.000000000000000   0.000000000000000   0.000000000000000
disp C   0.000000000000000   0.000000000000000   0.000000000000000
disp C   0.000000000000000   0.000000000000000   0.000000000000000
disp C   0.000000000000000   0.000000000000000   0.000000000000000
disp C   0.000000000000000   0.000000000000000   0.000000000000000
disp C   0.000000000000000   0.000000000000000   0.000000000000000
disp C   0.000000000000000   0.000000000000000   0.000000000000000
disp C   0.000000000000000   0.000000000000000   0.000000000000000
disp C   0.000000000000000   0.000000000000000   0.000000000000000
disp C   0.000000000000000   0.000000000000000   0.000000000000000
disp C   0.000000000000000   0.000000000000000   0.000000000000000
disp C   0.000000000000000   0.000000000000000   0.000000000000000
disp C   0.000000000000000   0.000000000000000   0.000000000000000
disp C   0.000000000000000   0.000000000000000   0.000000000000000
disp C   0.000000000000000   0.000000000000000   0.000000000000000
disp C   0.000000000000000   0.000000000000000   0.000000000000000
disp C   0.000000000000000   0.000000000000000   0.000000000000000
disp C   0.000000000000000   0.000000000000000   0.000000000000000
disp C   0.000000000000000   0.000000000000000   0.000000000000000
disp C   0.000000000000000   0.000000000000000   0.000000000000000
disp C   0.000000000000000   0.000000000000000   0.000000000000000
disp C   0.000000000000000   0.000000000000000   0.000000000000000
disp C   0.000000000000000   0.000000000000000   0.000000000000000
disp C   0.000000000000000   0.000000000000000   0.000000000000000
disp C   0.000000000000000   0.000000000000000   0.000000000000000
disp C   0.000000000000000   0.000000000000000   0.000000000000000
disp C   0.000000000000000   0.000000000000000   0.000000000000000
disp C   0.000000000000000   0.000000000000000   0.000000000000000
disp C   0.000000000000000   0.000000000000000   0.000000000000000
disp C   0.000000000000000   0.000000000000000   0.000000000000000
disp C   0.000000000000000   0.000000000000000   0.000000000000000
disp C   0.000000000000000   0.000000000000000   0.000000000000000
disp C   0.000000000000000   0.000000000000000   0.000000000000000
disp C   0.000000000000000   0.000000000000000   0.000000000000000
disp C   0.000000000000000   0.000000000000000   0.000000000000000
disp C   0.000000000000000   0.000000000000000   0.000000000000000
disp C   0.000000000000000   0.000000000000000   0.000000000000000
disp C   0.000000000000000   0.000000000000000   0.000000000000000
disp C   0.000000000000000   0.000000000000000   0.000000000000000
disp C   0.000000000000000   0.000000000000000   0.000000000000000
disp C  -0.000786695676080   0.000533183727294  -0.001227300122678
disp N   0.000000000000000   0.000000000000000   0.000000000000000
disp N   0.000000000000000   0.000000000000000   0.000000000000000
disp N   0.000000000000000   0.000000000000000   0.000000000000000
disp N   0.000000000000000   0.000000000000000   0.000000000000000
disp Ti   0.000000000000000   0.000000000000000   0.000000000000000
disp O  -0.001091045075990   0.000974594765853   0.000210886988334
disp O   0.001848377262449  -0.001849979690385  -0.000537938524388
disp H   0.000813018670198   0.002352294424987   0.019013782957980

Real mode 9:
Frequency: 0.005426 Eh [ 1191 cm^-1 ]
Degeneracy: 1 of 1
IR intensity: 9.9099 e^2/amu [ 9660.9 km/mol ]
Displacements:
disp C   0.000000000000000   0.000000000000000   0.000000000000000
disp C   0.000000000000000   0.000000000000000   0.000000000000000
disp C   0.000000000000000   0.000000000000000   0.000000000000000
disp C   0.000000000000000   0.000000000000000   0.000000000000000
disp C   0.000000000000000   0.000000000000000   0.000000000000000
disp C   0.000000000000000   0.000000000000000   0.000000000000000
disp C   0.000000000000000   0.000000000000000   0.000000000000000
disp C   0.000000000000000   0.000000000000000   0.000000000000000
disp C   0.000000000000000   0.000000000000000   0.000000000000000
disp C   0.000000000000000   0.000000000000000   0.000000000000000
disp C   0.000000000000000   0.000000000000000   0.000000000000000
disp C   0.000000000000000   0.000000000000000   0.000000000000000
disp C   0.000000000000000   0.000000000000000   0.000000000000000
disp C   0.000000000000000   0.000000000000000   0.000000000000000
disp C   0.000000000000000   0.000000000000000   0.000000000000000
disp C   0.000000000000000   0.000000000000000   0.000000000000000
disp C   0.000000000000000   0.000000000000000   0.000000000000000
disp C   0.000000000000000   0.000000000000000   0.000000000000000
disp C   0.000000000000000   0.000000000000000   0.000000000000000
disp C   0.000000000000000   0.000000000000000   0.000000000000000
disp C   0.000000000000000   0.000000000000000   0.000000000000000
disp C   0.000000000000000   0.000000000000000   0.000000000000000
disp C   0.000000000000000   0.000000000000000   0.000000000000000
disp C   0.000000000000000   0.000000000000000   0.000000000000000
disp C   0.000000000000000   0.000000000000000   0.000000000000000
disp C   0.000000000000000   0.000000000000000   0.000000000000000
disp C   0.000000000000000   0.000000000000000   0.000000000000000
disp C   0.000000000000000   0.000000000000000   0.000000000000000
disp C   0.000000000000000   0.000000000000000   0.000000000000000
disp C   0.000000000000000   0.000000000000000   0.000000000000000
disp C   0.000000000000000   0.000000000000000   0.000000000000000
disp C   0.000000000000000   0.000000000000000   0.000000000000000
disp C   0.000000000000000   0.000000000000000   0.000000000000000
disp C   0.000000000000000   0.000000000000000   0.000000000000000
disp C   0.000000000000000   0.000000000000000   0.000000000000000
disp C   0.000000000000000   0.000000000000000   0.000000000000000
disp C   0.000000000000000   0.000000000000000   0.000000000000000
disp C   0.000000000000000   0.000000000000000   0.000000000000000
disp C   0.000000000000000   0.000000000000000   0.000000000000000
disp C   0.000000000000000   0.000000000000000   0.000000000000000
disp C   0.000000000000000   0.000000000000000   0.000000000000000
disp C   0.000000000000000   0.000000000000000   0.000000000000000
disp C   0.000000000000000   0.000000000000000   0.000000000000000
disp C   0.000000000000000   0.000000000000000   0.000000000000000
disp C   0.001257977704409  -0.000364201046648   0.004767514816162
disp N   0.000000000000000   0.000000000000000   0.000000000000000
disp N   0.000000000000000   0.000000000000000   0.000000000000000
disp N   0.000000000000000   0.000000000000000   0.000000000000000
disp N   0.000000000000000   0.000000000000000   0.000000000000000
disp Ti   0.000000000000000   0.000000000000000   0.000000000000000
disp O  -0.000046508315348  -0.000365122964231  -0.003195455343656
disp O  -0.000979257207999   0.000793801061065  -0.000470414496339
disp H   0.001231105647045   0.000627313201498   0.007621833075620

Real mode 10:
Frequency: 0.006559 Eh [ 1439 cm^-1 ]
Degeneracy: 1 of 1
IR intensity: 0.3383 e^2/amu [ 329.8 km/mol ]
Displacements:
disp C   0.000000000000000   0.000000000000000   0.000000000000000
disp C   0.000000000000000   0.000000000000000   0.000000000000000
disp C   0.000000000000000   0.000000000000000   0.000000000000000
disp C   0.000000000000000   0.000000000000000   0.000000000000000
disp C   0.000000000000000   0.000000000000000   0.000000000000000
disp C   0.000000000000000   0.000000000000000   0.000000000000000
disp C   0.000000000000000   0.000000000000000   0.000000000000000
disp C   0.000000000000000   0.000000000000000   0.000000000000000
disp C   0.000000000000000   0.000000000000000   0.000000000000000
disp C   0.000000000000000   0.000000000000000   0.000000000000000
disp C   0.000000000000000   0.000000000000000   0.000000000000000
disp C   0.000000000000000   0.000000000000000   0.000000000000000
disp C   0.000000000000000   0.000000000000000   0.000000000000000
disp C   0.000000000000000   0.000000000000000   0.000000000000000
disp C   0.000000000000000   0.000000000000000   0.000000000000000
disp C   0.000000000000000   0.000000000000000   0.000000000000000
disp C   0.000000000000000   0.000000000000000   0.000000000000000
disp C   0.000000000000000   0.000000000000000   0.000000000000000
disp C   0.000000000000000   0.000000000000000   0.000000000000000
disp C   0.000000000000000   0.000000000000000   0.000000000000000
disp C   0.000000000000000   0.000000000000000   0.000000000000000
disp C   0.000000000000000   0.000000000000000   0.000000000000000
disp C   0.000000000000000   0.000000000000000   0.000000000000000
disp C   0.000000000000000   0.000000000000000   0.000000000000000
disp C   0.000000000000000   0.000000000000000   0.000000000000000
disp C   0.000000000000000   0.000000000000000   0.000000000000000
disp C   0.000000000000000   0.000000000000000   0.000000000000000
disp C   0.000000000000000   0.000000000000000   0.000000000000000
disp C   0.000000000000000   0.000000000000000   0.000000000000000
disp C   0.000000000000000   0.000000000000000   0.000000000000000
disp C   0.000000000000000   0.000000000000000   0.000000000000000
disp C   0.000000000000000   0.000000000000000   0.000000000000000
disp C   0.000000000000000   0.000000000000000   0.000000000000000
disp C   0.000000000000000   0.000000000000000   0.000000000000000
disp C   0.000000000000000   0.000000000000000   0.000000000000000
disp C   0.000000000000000   0.000000000000000   0.000000000000000
disp C   0.000000000000000   0.000000000000000   0.000000000000000
disp C   0.000000000000000   0.000000000000000   0.000000000000000
disp C   0.000000000000000   0.000000000000000   0.000000000000000
disp C   0.000000000000000   0.000000000000000   0.000000000000000
disp C   0.000000000000000   0.000000000000000   0.000000000000000
disp C   0.000000000000000   0.000000000000000   0.000000000000000
disp C   0.000000000000000   0.000000000000000   0.000000000000000
disp C   0.000000000000000   0.000000000000000   0.000000000000000
disp C   0.003329159257560  -0.003605772231666  -0.002279789046704
disp N   0.000000000000000   0.000000000000000   0.000000000000000
disp N   0.000000000000000   0.000000000000000   0.000000000000000
disp N   0.000000000000000   0.000000000000000   0.000000000000000
disp N   0.000000000000000   0.000000000000000   0.000000000000000
disp Ti   0.000000000000000   0.000000000000000   0.000000000000000
disp O  -0.000486786661804   0.000587751977431   0.000784697747543
disp O  -0.002073460516369   0.002048664471844   0.000079788158776
disp H   0.000843104231640   0.001347442174605   0.006229632094544

Real mode 11:
Frequency: 0.016722 Eh [ 3670 cm^-1 ]
Degeneracy: 1 of 1
IR intensity: 1.8624 e^2/amu [ 1815.6 km/mol ]
Displacements:
disp C   0.000000000000000   0.000000000000000   0.000000000000000
disp C   0.000000000000000   0.000000000000000   0.000000000000000
disp C   0.000000000000000   0.000000000000000   0.000000000000000
disp C   0.000000000000000   0.000000000000000   0.000000000000000
disp C   0.000000000000000   0.000000000000000   0.000000000000000
disp C   0.000000000000000   0.000000000000000   0.000000000000000
disp C   0.000000000000000   0.000000000000000   0.000000000000000
disp C   0.000000000000000   0.000000000000000   0.000000000000000
disp C   0.000000000000000   0.000000000000000   0.000000000000000
disp C   0.000000000000000   0.000000000000000   0.000000000000000
disp C   0.000000000000000   0.000000000000000   0.000000000000000
disp C   0.000000000000000   0.000000000000000   0.000000000000000
disp C   0.000000000000000   0.000000000000000   0.000000000000000
disp C   0.000000000000000   0.000000000000000   0.000000000000000
disp C   0.000000000000000   0.000000000000000   0.000000000000000
disp C   0.000000000000000   0.000000000000000   0.000000000000000
disp C   0.000000000000000   0.000000000000000   0.000000000000000
disp C   0.000000000000000   0.000000000000000   0.000000000000000
disp C   0.000000000000000   0.000000000000000   0.000000000000000
disp C   0.000000000000000   0.000000000000000   0.000000000000000
disp C   0.000000000000000   0.000000000000000   0.000000000000000
disp C   0.000000000000000   0.000000000000000   0.000000000000000
disp C   0.000000000000000   0.000000000000000   0.000000000000000
disp C   0.000000000000000   0.000000000000000   0.000000000000000
disp C   0.000000000000000   0.000000000000000   0.000000000000000
disp C   0.000000000000000   0.000000000000000   0.000000000000000
disp C   0.000000000000000   0.000000000000000   0.000000000000000
disp C   0.000000000000000   0.000000000000000   0.000000000000000
disp C   0.000000000000000   0.000000000000000   0.000000000000000
disp C   0.000000000000000   0.000000000000000   0.000000000000000
disp C   0.000000000000000   0.000000000000000   0.000000000000000
disp C   0.000000000000000   0.000000000000000   0.000000000000000
disp C   0.000000000000000   0.000000000000000   0.000000000000000
disp C   0.000000000000000   0.000000000000000   0.000000000000000
disp C   0.000000000000000   0.000000000000000   0.000000000000000
disp C   0.000000000000000   0.000000000000000   0.000000000000000
disp C   0.000000000000000   0.000000000000000   0.000000000000000
disp C   0.000000000000000   0.000000000000000   0.000000000000000
disp C   0.000000000000000   0.000000000000000   0.000000000000000
disp C   0.000000000000000   0.000000000000000   0.000000000000000
disp C   0.000000000000000   0.000000000000000   0.000000000000000
disp C   0.000000000000000   0.000000000000000   0.000000000000000
disp C   0.000000000000000   0.000000000000000   0.000000000000000
disp C   0.000000000000000   0.000000000000000   0.000000000000000
disp C   0.000057373515920  -0.000034485767464  -0.000031064993478
disp N   0.000000000000000   0.000000000000000   0.000000000000000
disp N   0.000000000000000   0.000000000000000   0.000000000000000
disp N   0.000000000000000   0.000000000000000   0.000000000000000
disp N   0.000000000000000   0.000000000000000   0.000000000000000
disp Ti   0.000000000000000   0.000000000000000   0.000000000000000
disp O   0.001048141961580  -0.000999888865873  -0.000014319003724
disp O  -0.000018422197363   0.000029866149514   0.000041657790023
disp H  -0.016265571850930   0.015679992082561   0.000635578979782

Vibrational free energy components at T = 298 K:
	ZPE:          0.022123
	Evib:         0.025257
	TSvib:        0.006139
	Avib:         0.019118


Dumping 'jdft.n_up' ... done
Dumping 'jdft.n_dn' ... done
Dumping 'jdft.tau_up' ... done
Dumping 'jdft.tau_dn' ... done
Dumping 'jdft.eigenvals' ... done
Dumping 'jdft.eigStats' ... 
	eMin: -2.255143 at state 0 ( [ +0.000000 +0.000000 +0.000000 ] spin 1 )
	HOMO: -0.128457 at state 1 ( [ +0.000000 +0.333333 +0.000000 ] spin 1 )
	mu  : -0.127200
	LUMO: -0.126063 at state 4 ( [ +0.333333 +0.333333 +0.000000 ] spin 1 )
	eMax: +0.023301 at state 9 ( [ +0.000000 +0.000000 +0.000000 ] spin -1 )
	HOMO-LUMO gap: +0.002394
	Optical gap  : +0.005089 at state 1 ( [ +0.000000 +0.333333 +0.000000 ] spin 1 )
Dumping 'jdft.kPts' ... done
Dumping 'jdft.dosUp' ... done.
Dumping 'jdft.dosDn' ... done.
End date and time: Thu Nov 10 03:37:16 2022  (Duration: 0-8:38:32.71)
Done!

PROFILER:             augmentDensityGrid     0.629089 +/-     0.805194 s, 2275 calls,   1431.178018 s total
PROFILER:         augmentDensityGridGrad     0.438675 +/-     0.535873 s, 1205 calls,    528.603307 s total
PROFILER:        augmentDensitySpherical     0.000368 +/-     0.000519 s, 2275 calls,      0.837832 s total
PROFILER:    augmentDensitySphericalGrad     0.000421 +/-     0.000767 s, 1565 calls,      0.659095 s total
PROFILER:                 augmentOverlap     1.355937 +/-     2.074344 s, 4550 calls,   6169.514958 s total
PROFILER:        ColumnBundle::randomize     0.004923 +/-     0.000000 s,    1 calls,      0.004923 s total
PROFILER:                     diagouterI    15.804732 +/-     3.182123 s,  458 calls,   7238.567470 s total
PROFILER:              EdensityAndVscloc     6.464297 +/-     4.500604 s,  456 calls,   2947.719299 s total
PROFILER:                     EnlAndGrad     0.001151 +/-     0.001855 s, 2350 calls,      2.703919 s total
PROFILER:            ExCorrCommunication     0.061840 +/-     0.066056 s, 2881 calls,    178.162456 s total
PROFILER:               ExCorrFunctional     0.021439 +/-     0.003795 s,  496 calls,     10.633910 s total
PROFILER:                    ExCorrTotal     0.629767 +/-     0.119581 s,  496 calls,    312.364534 s total
PROFILER:                   Idag_DiagV_I    26.821827 +/-    10.687709 s,  300 calls,   8046.547995 s total
PROFILER:                    initWeights     1.793485 +/-     0.000000 s,    1 calls,      1.793485 s total
PROFILER:                    inv(matrix)     0.001914 +/-     0.000908 s,  382 calls,      0.731202 s total
PROFILER:            matrix::diagonalize     0.007745 +/-     0.005020 s,  740 calls,      5.731317 s total
PROFILER:                    matrix::set     0.000003 +/-     0.000004 s, 42045 calls,      0.121528 s total
PROFILER:            orthoMatrix(matrix)     0.001381 +/-     0.000775 s,  442 calls,      0.610352 s total
PROFILER:     RadialFunctionR::transform     0.003683 +/-     0.022582 s,  151 calls,      0.556175 s total
PROFILER:                    reduceKmesh     0.000000 +/-     0.000000 s,    1 calls,      0.000000 s total
PROFILER:   VanDerWaalsD3::energyAndGrad     0.031294 +/-     0.001694 s,   27 calls,      0.844927 s total
PROFILER:               WavefunctionDrag    27.026838 +/-     0.324717 s,   13 calls,    351.348894 s total
PROFILER:                            Y*M     0.631302 +/-     0.821117 s, 7929 calls,   5005.594521 s total
PROFILER:                          Y1^Y2     0.630452 +/-     0.840696 s, 5834 calls,   3678.055844 s total

MEMUSAGE:                   ColumnBundle     1.333771 GB
MEMUSAGE:        complexScalarFieldTilde     0.049438 GB
MEMUSAGE:                    IndexArrays     0.023178 GB
MEMUSAGE:                         matrix     0.020714 GB
MEMUSAGE:                           misc     0.051230 GB
MEMUSAGE:                    ScalarField     0.395508 GB
MEMUSAGE:               ScalarFieldTilde     0.262436 GB
MEMUSAGE:                          Total     1.650819 GB
