
*************** JDFTx 1.7.0 (git hash 5f12716a) ***************

Start date and time: Tue Mar 14 13:34:30 2023
Executable /home/nisi6161/jdftx_alpine/build/jdftx with command-line: -i in
Running on hosts (process indices):  c3cpu-c11-u34-3.rc.int.colorado.edu (0-17)
Divided in process groups (process indices):  0 (0)  1 (1)  2 (2)  3 (3)  4 (4)  5 (5)  6 (6)  7 (7)  8 (8)  9 (9)  10 (10)  11 (11)  12 (12)  13 (13)  14 (14)  15 (15)  16 (16)  17 (17)
Resource initialization completed at t[s]:      0.00
Run totals: 18 processes, 32 threads, 0 GPUs


Input parsed successfully to the following command list (including defaults):

basis kpoint-dependent
converge-empty-states yes
coords-type Cartesian
core-overlap-check none
coulomb-interaction Periodic
davidson-band-ratio 1.1
density-of-states Etol 1.000000e-06 Esigma 1.000000e-03 \
		Complete \
	Total \
	OrthoOrbital C 1   s \
	OrthoOrbital C 1   p \
	OrthoOrbital C 1   px \
	OrthoOrbital C 1   py \
	OrthoOrbital C 1   pz \
	OrthoOrbital C 2   s \
	OrthoOrbital C 2   p \
	OrthoOrbital C 2   px \
	OrthoOrbital C 2   py \
	OrthoOrbital C 2   pz \
	OrthoOrbital C 3   s \
	OrthoOrbital C 3   p \
	OrthoOrbital C 3   px \
	OrthoOrbital C 3   py \
	OrthoOrbital C 3   pz \
	OrthoOrbital C 4   s \
	OrthoOrbital C 4   p \
	OrthoOrbital C 4   px \
	OrthoOrbital C 4   py \
	OrthoOrbital C 4   pz \
	OrthoOrbital C 5   s \
	OrthoOrbital C 5   p \
	OrthoOrbital C 5   px \
	OrthoOrbital C 5   py \
	OrthoOrbital C 5   pz \
	OrthoOrbital C 6   s \
	OrthoOrbital C 6   p \
	OrthoOrbital C 6   px \
	OrthoOrbital C 6   py \
	OrthoOrbital C 6   pz \
	OrthoOrbital C 7   s \
	OrthoOrbital C 7   p \
	OrthoOrbital C 7   px \
	OrthoOrbital C 7   py \
	OrthoOrbital C 7   pz \
	OrthoOrbital C 8   s \
	OrthoOrbital C 8   p \
	OrthoOrbital C 8   px \
	OrthoOrbital C 8   py \
	OrthoOrbital C 8   pz \
	OrthoOrbital C 9   s \
	OrthoOrbital C 9   p \
	OrthoOrbital C 9   px \
	OrthoOrbital C 9   py \
	OrthoOrbital C 9   pz \
	OrthoOrbital C 10   s \
	OrthoOrbital C 10   p \
	OrthoOrbital C 10   px \
	OrthoOrbital C 10   py \
	OrthoOrbital C 10   pz \
	OrthoOrbital C 11   s \
	OrthoOrbital C 11   p \
	OrthoOrbital C 11   px \
	OrthoOrbital C 11   py \
	OrthoOrbital C 11   pz \
	OrthoOrbital C 12   s \
	OrthoOrbital C 12   p \
	OrthoOrbital C 12   px \
	OrthoOrbital C 12   py \
	OrthoOrbital C 12   pz \
	OrthoOrbital C 13   s \
	OrthoOrbital C 13   p \
	OrthoOrbital C 13   px \
	OrthoOrbital C 13   py \
	OrthoOrbital C 13   pz \
	OrthoOrbital C 14   s \
	OrthoOrbital C 14   p \
	OrthoOrbital C 14   px \
	OrthoOrbital C 14   py \
	OrthoOrbital C 14   pz \
	OrthoOrbital C 15   s \
	OrthoOrbital C 15   p \
	OrthoOrbital C 15   px \
	OrthoOrbital C 15   py \
	OrthoOrbital C 15   pz \
	OrthoOrbital C 16   s \
	OrthoOrbital C 16   p \
	OrthoOrbital C 16   px \
	OrthoOrbital C 16   py \
	OrthoOrbital C 16   pz \
	OrthoOrbital C 17   s \
	OrthoOrbital C 17   p \
	OrthoOrbital C 17   px \
	OrthoOrbital C 17   py \
	OrthoOrbital C 17   pz \
	OrthoOrbital C 18   s \
	OrthoOrbital C 18   p \
	OrthoOrbital C 18   px \
	OrthoOrbital C 18   py \
	OrthoOrbital C 18   pz \
	OrthoOrbital C 19   s \
	OrthoOrbital C 19   p \
	OrthoOrbital C 19   px \
	OrthoOrbital C 19   py \
	OrthoOrbital C 19   pz \
	OrthoOrbital C 20   s \
	OrthoOrbital C 20   p \
	OrthoOrbital C 20   px \
	OrthoOrbital C 20   py \
	OrthoOrbital C 20   pz \
	OrthoOrbital C 21   s \
	OrthoOrbital C 21   p \
	OrthoOrbital C 21   px \
	OrthoOrbital C 21   py \
	OrthoOrbital C 21   pz \
	OrthoOrbital C 22   s \
	OrthoOrbital C 22   p \
	OrthoOrbital C 22   px \
	OrthoOrbital C 22   py \
	OrthoOrbital C 22   pz \
	OrthoOrbital C 23   s \
	OrthoOrbital C 23   p \
	OrthoOrbital C 23   px \
	OrthoOrbital C 23   py \
	OrthoOrbital C 23   pz \
	OrthoOrbital C 24   s \
	OrthoOrbital C 24   p \
	OrthoOrbital C 24   px \
	OrthoOrbital C 24   py \
	OrthoOrbital C 24   pz \
	OrthoOrbital C 25   s \
	OrthoOrbital C 25   p \
	OrthoOrbital C 25   px \
	OrthoOrbital C 25   py \
	OrthoOrbital C 25   pz \
	OrthoOrbital C 26   s \
	OrthoOrbital C 26   p \
	OrthoOrbital C 26   px \
	OrthoOrbital C 26   py \
	OrthoOrbital C 26   pz \
	OrthoOrbital C 27   s \
	OrthoOrbital C 27   p \
	OrthoOrbital C 27   px \
	OrthoOrbital C 27   py \
	OrthoOrbital C 27   pz \
	OrthoOrbital C 28   s \
	OrthoOrbital C 28   p \
	OrthoOrbital C 28   px \
	OrthoOrbital C 28   py \
	OrthoOrbital C 28   pz \
	OrthoOrbital C 29   s \
	OrthoOrbital C 29   p \
	OrthoOrbital C 29   px \
	OrthoOrbital C 29   py \
	OrthoOrbital C 29   pz \
	OrthoOrbital C 30   s \
	OrthoOrbital C 30   p \
	OrthoOrbital C 30   px \
	OrthoOrbital C 30   py \
	OrthoOrbital C 30   pz \
	OrthoOrbital C 31   s \
	OrthoOrbital C 31   p \
	OrthoOrbital C 31   px \
	OrthoOrbital C 31   py \
	OrthoOrbital C 31   pz \
	OrthoOrbital C 32   s \
	OrthoOrbital C 32   p \
	OrthoOrbital C 32   px \
	OrthoOrbital C 32   py \
	OrthoOrbital C 32   pz \
	OrthoOrbital C 33   s \
	OrthoOrbital C 33   p \
	OrthoOrbital C 33   px \
	OrthoOrbital C 33   py \
	OrthoOrbital C 33   pz \
	OrthoOrbital C 34   s \
	OrthoOrbital C 34   p \
	OrthoOrbital C 34   px \
	OrthoOrbital C 34   py \
	OrthoOrbital C 34   pz \
	OrthoOrbital C 35   s \
	OrthoOrbital C 35   p \
	OrthoOrbital C 35   px \
	OrthoOrbital C 35   py \
	OrthoOrbital C 35   pz \
	OrthoOrbital C 36   s \
	OrthoOrbital C 36   p \
	OrthoOrbital C 36   px \
	OrthoOrbital C 36   py \
	OrthoOrbital C 36   pz \
	OrthoOrbital C 37   s \
	OrthoOrbital C 37   p \
	OrthoOrbital C 37   px \
	OrthoOrbital C 37   py \
	OrthoOrbital C 37   pz \
	OrthoOrbital C 38   s \
	OrthoOrbital C 38   p \
	OrthoOrbital C 38   px \
	OrthoOrbital C 38   py \
	OrthoOrbital C 38   pz \
	OrthoOrbital C 39   s \
	OrthoOrbital C 39   p \
	OrthoOrbital C 39   px \
	OrthoOrbital C 39   py \
	OrthoOrbital C 39   pz \
	OrthoOrbital C 40   s \
	OrthoOrbital C 40   p \
	OrthoOrbital C 40   px \
	OrthoOrbital C 40   py \
	OrthoOrbital C 40   pz \
	OrthoOrbital C 41   s \
	OrthoOrbital C 41   p \
	OrthoOrbital C 41   px \
	OrthoOrbital C 41   py \
	OrthoOrbital C 41   pz \
	OrthoOrbital C 42   s \
	OrthoOrbital C 42   p \
	OrthoOrbital C 42   px \
	OrthoOrbital C 42   py \
	OrthoOrbital C 42   pz \
	OrthoOrbital C 43   s \
	OrthoOrbital C 43   p \
	OrthoOrbital C 43   px \
	OrthoOrbital C 43   py \
	OrthoOrbital C 43   pz \
	OrthoOrbital C 44   s \
	OrthoOrbital C 44   p \
	OrthoOrbital C 44   px \
	OrthoOrbital C 44   py \
	OrthoOrbital C 44   pz \
	OrthoOrbital C 45   s \
	OrthoOrbital C 45   p \
	OrthoOrbital C 45   px \
	OrthoOrbital C 45   py \
	OrthoOrbital C 45   pz \
	OrthoOrbital N 1   s \
	OrthoOrbital N 1   p \
	OrthoOrbital N 1   px \
	OrthoOrbital N 1   py \
	OrthoOrbital N 1   pz \
	OrthoOrbital N 2   s \
	OrthoOrbital N 2   p \
	OrthoOrbital N 2   px \
	OrthoOrbital N 2   py \
	OrthoOrbital N 2   pz \
	OrthoOrbital N 3   s \
	OrthoOrbital N 3   p \
	OrthoOrbital N 3   px \
	OrthoOrbital N 3   py \
	OrthoOrbital N 3   pz \
	OrthoOrbital N 4   s \
	OrthoOrbital N 4   p \
	OrthoOrbital N 4   px \
	OrthoOrbital N 4   py \
	OrthoOrbital N 4   pz \
	OrthoOrbital Ti 1   s \
	OrthoOrbital Ti 1   p \
	OrthoOrbital Ti 1   px \
	OrthoOrbital Ti 1   py \
	OrthoOrbital Ti 1   pz \
	OrthoOrbital Ti 1   d \
	OrthoOrbital Ti 1   dxy \
	OrthoOrbital Ti 1   dyz \
	OrthoOrbital Ti 1   dz2 \
	OrthoOrbital Ti 1   dxz \
	OrthoOrbital Ti 1   dx2-y2 \
	OrthoOrbital O 1   s \
	OrthoOrbital O 1   p \
	OrthoOrbital O 1   px \
	OrthoOrbital O 1   py \
	OrthoOrbital O 1   pz \
	OrthoOrbital O 2   s \
	OrthoOrbital O 2   p \
	OrthoOrbital O 2   px \
	OrthoOrbital O 2   py \
	OrthoOrbital O 2   pz \
	OrthoOrbital O 3   s \
	OrthoOrbital O 3   p \
	OrthoOrbital O 3   px \
	OrthoOrbital O 3   py \
	OrthoOrbital O 3   pz \
	OrthoOrbital H 1   s \
	OrthoOrbital H 2   s \
	OrthoOrbital H 3   s \
	OrthoOrbital H 4   s
dump End ElecDensity KEdensity BandEigs EigStats RhoAtom DOS Kpoints
dump Ionic State IonicPositions Lattice EigStats Ecomponents
dump 
dump 
dump 
dump 
dump 
dump 
dump 
dump 
dump-name jdft.$VAR
elec-cutoff 20
elec-eigen-algo Davidson
elec-ex-corr gga-PBE
elec-initial-magnetization 0.000000 no
elec-n-bands 141
elec-smearing Fermi 0.001
electronic-minimize  \
	dirUpdateScheme      FletcherReeves \
	linminMethod         DirUpdateRecommended \
	nIterations          100 \
	history              15 \
	knormThreshold       0 \
	energyDiffThreshold  1e-07 \
	nEnergyDiff          2 \
	alphaTstart          1 \
	alphaTmin            1e-10 \
	updateTestStepSize   yes \
	alphaTreduceFactor   0.1 \
	alphaTincreaseFactor 3 \
	nAlphaAdjustMax      3 \
	wolfeEnergy          0.0001 \
	wolfeGradient        0.9 \
	fdTest               no
exchange-regularization WignerSeitzTruncated
fluid LinearPCM 298.000000 1.013250
fluid-anion F- 0.5 MeanFieldLJ \
	epsBulk 1 \
	pMol 0 \
	epsInf 1 \
	Pvap 0 \
	sigmaBulk 0 \
	Rvdw 2.24877 \
	Res 0 \
	tauNuc 343133
fluid-cation Na+ 0.5 MeanFieldLJ \
	epsBulk 1 \
	pMol 0 \
	epsInf 1 \
	Pvap 0 \
	sigmaBulk 0 \
	Rvdw 2.19208 \
	Res 0 \
	tauNuc 343133
fluid-ex-corr lda-TF lda-PZ
fluid-gummel-loop 10 1.000000e-05
fluid-minimize  \
	dirUpdateScheme      PolakRibiere \
	linminMethod         DirUpdateRecommended \
	nIterations          400 \
	history              15 \
	knormThreshold       1e-11 \
	energyDiffThreshold  0 \
	nEnergyDiff          2 \
	alphaTstart          1 \
	alphaTmin            1e-10 \
	updateTestStepSize   yes \
	alphaTreduceFactor   0.1 \
	alphaTincreaseFactor 3 \
	nAlphaAdjustMax      6 \
	wolfeEnergy          0.0001 \
	wolfeGradient        0.9 \
	fdTest               no
fluid-solvent H2O 55.338 ScalarEOS \
	epsBulk 78.4 \
	pMol 0.92466 \
	epsInf 1.77 \
	Pvap 1.06736e-10 \
	sigmaBulk 4.62e-05 \
	Rvdw 2.61727 \
	Res 1.42 \
	tauNuc 343133 \
	poleEl 15 7 1
forces-output-coords Positions
ion C   0.000858000000000   0.088004000000000   0.037676000000000 1
ion C  21.042811000000004   4.042559000000001   0.062505000000000 1
ion C  18.694477999999997   8.046589000000003   0.000216000000000 1
ion C  -7.046500000000001  12.046085000000001  43.240135000000009 1
ion C  -9.371743000000002  16.058293000000003   0.010598000000000 1
ion C   4.683095000000001   0.183093000000000   0.055844000000000 1
ion C   2.290652000000001   4.206701000000001   0.190674000000000 1
ion C  -0.129709000000001   8.023835999999999   0.205165000000000 1
ion C  -2.428147000000001  12.029620000000001   0.079029000000000 1
ion C  -4.721459000000002  16.058691000000003   0.029501000000000 1
ion C   9.378534999999999   0.069208000000000   0.005667000000000 1
ion C   7.082758000000002   4.165391000000001   0.030193000000000 1
ion C  -0.022498000000001  15.952888000000002   0.094472000000000 1
ion C   2.343153000000001  19.928317000000003   0.025348000000000 1
ion C  11.754956000000002   4.028046000000001  43.229927000000011 1
ion C   9.463841000000002   8.018753000000002  43.252117000000005 1
ion C   4.668796000000000  15.836446000000002   0.129250000000000 1
ion C   6.994999999999996  19.938372000000008   0.024959000000000 1
ion C  16.397690000000004   4.016847000000000  43.247748000000009 1
ion C  14.089431000000001   8.040320000000003  43.232306000000008 1
ion C  11.773346999999998  12.043536000000000   0.007873000000000 1
ion C   9.376474999999999  15.990309999999999   0.009819000000000 1
ion C  -0.015408000000000   2.774095000000000   0.089757000000000 1
ion C  -2.427988000000001   6.697235000000002   0.067869000000000 1
ion C  -4.742627000000001  10.696323000000000   0.003590000000000 1
ion C  -7.047232000000001  14.721395000000003   0.006921000000000 1
ion C  -9.375309000000000  18.747187000000004   0.038758000000000 1
ion C   4.679461000000001   2.900198000000001   0.112120000000000 1
ion C  -0.127902000000002  10.705432000000004   0.220910000000000 1
ion C  -2.400542000000001  14.702278000000003   0.073492000000000 1
ion C  -4.721295000000001  18.744116000000005   0.026430000000000 1
ion C   9.390866000000003   2.749775000000001  43.238015000000004 1
ion C   2.285678999999998  14.523485000000004   0.211610000000000 1
ion C  -0.011098000000000  18.639380000000003   0.029847000000000 1
ion C  14.076608000000002   2.675045000000000  43.245023000000010 1
ion C  11.781317000000001   6.702698000000001  43.239529000000005 1
ion C   9.459468999999999  10.720055000000002   0.027684000000000 1
ion C   7.068716999999999  14.571788000000003   0.076693000000000 1
ion C   4.668956999999999  18.555029000000001   0.053854000000000 1
ion C  18.724543000000004   2.682584000000001   0.019206000000000 1
ion C  16.393877000000000   6.692892000000001  43.231657000000006 1
ion C  14.086265000000001  10.712356000000002  43.238232000000011 1
ion C  11.744702999999999  14.718944000000002   0.005580000000000 1
ion C   9.361513000000000  18.671913000000000   0.016135000000000 1
ion C   4.372988000000001   9.150167000000003   5.574138000000000 1
ion N   2.170125000000001  11.917057000000000   0.428800000000000 1
ion N   7.176043000000002  11.978837000000004   0.139199000000000 1
ion N   2.161992000000000   6.808653000000001   0.376936000000000 1
ion N   7.191344000000001   6.750906000000001   0.036552000000000 1
ion Ti   4.846389000000002   9.332503000000003   1.575827000000000 1
ion O   3.908969000000000  10.924121000000003   7.505576000000000 1
ion O   4.875666000000001   6.992549000000001   6.242881000000001 1
ion O   8.015041999999998  11.942812000000004   9.811051000000003 1
ion H   8.016695000000000  13.650706000000003  10.615835000000002 1
ion H   8.487213000000002  10.661970000000002  11.112806000000003 1
ion H   6.243020000000001  11.538025000000001   9.033346000000002 1
ion H   3.283167000000000  12.534014000000003   6.779043000000001 1
ion-species /projects/musgravc/apps/jdftx-1.6.0/build/pseudopotentials/GBRV_v1.5/$ID_pbe_v1.uspp
ion-species /projects/musgravc/apps/jdftx-1.6.0/build/pseudopotentials/GBRV_v1.5/$ID_pbe_v1.2.uspp
ion-species /projects/musgravc/apps/jdftx-1.6.0/build/pseudopotentials/GBRV_v1.5/$ID_pbe_v1.4.uspp
ion-species /projects/musgravc/apps/jdftx-1.6.0/build/pseudopotentials/GBRV_v1.5/$ID_pbe_v1.5.uspp
ion-width Ecut
ionic-minimize  \
	dirUpdateScheme      L-BFGS \
	linminMethod         DirUpdateRecommended \
	nIterations          0 \
	history              15 \
	knormThreshold       0.0001 \
	energyDiffThreshold  1e-06 \
	nEnergyDiff          2 \
	alphaTstart          1 \
	alphaTmin            1e-10 \
	updateTestStepSize   yes \
	alphaTreduceFactor   0.1 \
	alphaTincreaseFactor 3 \
	nAlphaAdjustMax      3 \
	wolfeEnergy          0.0001 \
	wolfeGradient        0.9 \
	fdTest               no
kpoint   0.000000000000   0.000000000000   0.000000000000  1.00000000000000
kpoint-folding 3 3 1 
latt-move-scale 0 0 0
latt-scale 1 1 1 
lattice  \
	  23.436261999999999  -11.733459000000000    0.000000000000000  \
	   0.017994000000000   19.941849000000001    0.000000000000000  \
	   0.000000000000000    0.000000000000000   43.256312999999999 
lattice-minimize  \
	dirUpdateScheme      L-BFGS \
	linminMethod         DirUpdateRecommended \
	nIterations          0 \
	history              15 \
	knormThreshold       0 \
	energyDiffThreshold  1e-06 \
	nEnergyDiff          2 \
	alphaTstart          1 \
	alphaTmin            1e-10 \
	updateTestStepSize   yes \
	alphaTreduceFactor   0.1 \
	alphaTincreaseFactor 3 \
	nAlphaAdjustMax      3 \
	wolfeEnergy          0.0001 \
	wolfeGradient        0.9 \
	fdTest               no
lcao-params 30 1e-06 0.001
pcm-variant CANDLE
spintype z-spin
subspace-rotation-factor 1 yes
symmetries none
symmetry-threshold 0.0001
target-mu -0.1602 no

van-der-waals D3


Applied RMS atom displacement 0 bohrs to make symmetries exact.

---------- Initializing the Grid ----------
R = 
[      23.4363     -11.7335            0  ]
[     0.017994      19.9418            0  ]
[            0            0      43.2563  ]
unit cell volume = 20225.5
G =
[   0.267976   0.157673         -0  ]
[ -0.000241801   0.314933          0  ]
[          0         -0   0.145255  ]
Minimum fftbox size, Smin = [  96  96  176  ]
Chosen fftbox size, S = [  96  96  180  ]

---------- Exchange Correlation functional ----------
Initalized PBE GGA exchange.
Initalized PBE GGA correlation.

---------- Setting up pseudopotentials ----------
Width of ionic core gaussian charges (only for fluid interactions / plotting) set to 0.397384

Reading pseudopotential file '/projects/musgravc/apps/jdftx-1.6.0/build/pseudopotentials/GBRV_v1.5/c_pbe_v1.2.uspp':
  Title: C.  Created by USPP 7.3.6 on 3-2-2014
  Reference state energy: -5.406344.  4 valence electrons in orbitals:
    |200>  occupation: 2  eigenvalue: -0.504890
    |210>  occupation: 2  eigenvalue: -0.194356
  lMax: 1  lLocal: 2  QijEcut: 5
  4 projectors sampled on a log grid with 503 points:
    l: 0  eig: -0.504890  rCut: 1.3
    l: 0  eig: 0.000000  rCut: 1.3
    l: 1  eig: -0.194357  rCut: 1.3
    l: 1  eig: 0.000000  rCut: 1.3
  Partial core density with radius 1.1
  Transforming core density to a uniform radial grid of dG=0.02 with 1464 points.
  Transforming local potential to a uniform radial grid of dG=0.02 with 1464 points.
  Transforming nonlocal projectors to a uniform radial grid of dG=0.02 with 432 points.
  Transforming density augmentations to a uniform radial grid of dG=0.02 with 1464 points.
  Transforming atomic orbitals to a uniform radial grid of dG=0.02 with 432 points.
  Core radius for overlap checks: 1.30 bohrs.

Reading pseudopotential file '/projects/musgravc/apps/jdftx-1.6.0/build/pseudopotentials/GBRV_v1.5/n_pbe_v1.2.uspp':
  Title: N.  Created by USPP 7.3.6 on 3-2-2014
  Reference state energy: -9.763716.  5 valence electrons in orbitals:
    |200>  occupation: 2  eigenvalue: -0.681964
    |210>  occupation: 3  eigenvalue: -0.260726
  lMax: 1  lLocal: 2  QijEcut: 6
  4 projectors sampled on a log grid with 491 points:
    l: 0  eig: -0.681964  rCut: 1.15
    l: 0  eig: 0.000000  rCut: 1.15
    l: 1  eig: -0.260729  rCut: 1.2
    l: 1  eig: 0.500000  rCut: 1.2
  Partial core density with radius 0.8
  Transforming core density to a uniform radial grid of dG=0.02 with 1464 points.
  Transforming local potential to a uniform radial grid of dG=0.02 with 1464 points.
  Transforming nonlocal projectors to a uniform radial grid of dG=0.02 with 432 points.
  Transforming density augmentations to a uniform radial grid of dG=0.02 with 1464 points.
  Transforming atomic orbitals to a uniform radial grid of dG=0.02 with 432 points.
  Core radius for overlap checks: 1.20 bohrs.

Reading pseudopotential file '/projects/musgravc/apps/jdftx-1.6.0/build/pseudopotentials/GBRV_v1.5/ti_pbe_v1.4.uspp':
  Title: Ti.  Created by USPP 7.3.6 on 31-3-15
  Reference state energy: -59.020943.  12 valence electrons in orbitals:
    |300>  occupation: 2  eigenvalue: -2.777623
    |310>  occupation: 6  eigenvalue: -1.894596
    |400>  occupation: 2  eigenvalue: -0.438610
    |320>  occupation: 1  eigenvalue: -0.583119
  lMax: 2  lLocal: 3  QijEcut: 6
  6 projectors sampled on a log grid with 597 points:
    l: 0  eig: -2.777624  rCut: 1.8
    l: 0  eig: -0.438611  rCut: 1.8
    l: 1  eig: -1.894596  rCut: 1.8
    l: 1  eig: 0.500000  rCut: 1.8
    l: 2  eig: -0.583118  rCut: 1.8
    l: 2  eig: 0.150000  rCut: 1.8
  Partial core density with radius 0.8
  Transforming core density to a uniform radial grid of dG=0.02 with 1464 points.
  Transforming local potential to a uniform radial grid of dG=0.02 with 1464 points.
  Transforming nonlocal projectors to a uniform radial grid of dG=0.02 with 432 points.
  Transforming density augmentations to a uniform radial grid of dG=0.02 with 1464 points.
  Transforming atomic orbitals to a uniform radial grid of dG=0.02 with 432 points.
  Core radius for overlap checks: 1.80 bohrs.

Reading pseudopotential file '/projects/musgravc/apps/jdftx-1.6.0/build/pseudopotentials/GBRV_v1.5/o_pbe_v1.2.uspp':
  Title: O.  Created by USPP 7.3.6 on 3-2-2014
  Reference state energy: -15.894388.  6 valence electrons in orbitals:
    |200>  occupation: 2  eigenvalue: -0.878823
    |210>  occupation: 4  eigenvalue: -0.332131
  lMax: 2  lLocal: 2  QijEcut: 6
  5 projectors sampled on a log grid with 511 points:
    l: 0  eig: -0.878823  rCut: 1.25
    l: 0  eig: 0.000000  rCut: 1.25
    l: 1  eig: -0.332132  rCut: 1.25
    l: 1  eig: 0.000000  rCut: 1.25
    l: 2  eig: 1.000000  rCut: 1.25
  Partial core density with radius 0.7
  Transforming core density to a uniform radial grid of dG=0.02 with 1464 points.
  Transforming local potential to a uniform radial grid of dG=0.02 with 1464 points.
  Transforming nonlocal projectors to a uniform radial grid of dG=0.02 with 432 points.
  Transforming density augmentations to a uniform radial grid of dG=0.02 with 1464 points.
  Transforming atomic orbitals to a uniform radial grid of dG=0.02 with 432 points.
  Core radius for overlap checks: 1.25 bohrs.

Reading pseudopotential file '/projects/musgravc/apps/jdftx-1.6.0/build/pseudopotentials/GBRV_v1.5/h_pbe_v1.4.uspp':
  Title: H.  Created by USPP 7.3.6 on 2-4-15
  Reference state energy: -0.458849.  1 valence electrons in orbitals:
    |100>  occupation: 1  eigenvalue: -0.238595
  lMax: 0  lLocal: 1  QijEcut: 6
  2 projectors sampled on a log grid with 395 points:
    l: 0  eig: -0.238595  rCut: 1.2
    l: 0  eig: 1.000000  rCut: 1.2
  Transforming local potential to a uniform radial grid of dG=0.02 with 1464 points.
  Transforming nonlocal projectors to a uniform radial grid of dG=0.02 with 432 points.
  Transforming density augmentations to a uniform radial grid of dG=0.02 with 1464 points.
  Transforming atomic orbitals to a uniform radial grid of dG=0.02 with 432 points.
  Core radius for overlap checks: 1.20 bohrs.

Initialized 5 species with 57 total atoms.

Folded 1 k-points by 3x3x1 to 9 k-points.

---------- Setting up k-points, bands, fillings ----------
No reducable k-points. 
Computing the number of bands and number of electrons
Calculating initial fillings.
nElectrons: 234.000000   nBands: 141   nStates: 18

----- Setting up reduced wavefunction bases (one per k-point) -----
average nbasis = 86412.556 , ideal nbasis = 86404.907

----- Initializing Supercell corresponding to k-point mesh -----
Lattice vector linear combinations in supercell:
[   3   0   0  ]
[   0   3   0  ]
[   0   0   1  ]
Supercell lattice vectors:
[  70.3088  -35.2004  0  ]
[  0.053982  59.8255  0  ]
[  0  0  43.2563  ]

Initializing DFT-D3 calculator:
	Parameters set for gga-PBE functional
	s6:  1.000  s_r6:  1.217
	s8:  0.722  s_r8:  1.000
	Per-atom parameters loaded for:
	 C:  sqrtQ[a0]:  3.105  Rcov[a0]:  1.417  CN: [ 0.00 0.99 2.00 3.00 3.98 ]
	 N:  sqrtQ[a0]:  2.712  Rcov[a0]:  1.342  CN: [ 0.00 0.99 2.01 2.99 ]
	Ti:  sqrtQ[a0]:  6.288  Rcov[a0]:  2.305  CN: [ 0.00 1.83 3.87 ]
	 O:  sqrtQ[a0]:  2.594  Rcov[a0]:  1.191  CN: [ 0.00 0.99 1.99 ]
	 H:  sqrtQ[a0]:  2.007  Rcov[a0]:  0.605  CN: [ 0.91 0.00 ]

Initializing DFT-D2 calculator for fluid / solvation:
	 C:  C6:   30.35 Eh-a0^6  R0: 2.744 a0
	 N:  C6:   21.33 Eh-a0^6  R0: 2.640 a0
	Ti:  C6:  187.33 Eh-a0^6  R0: 2.952 a0
	 O:  C6:   12.14 Eh-a0^6  R0: 2.536 a0
	 H:  C6:    2.43 Eh-a0^6  R0: 1.892 a0

---------- Setting up ewald sum ----------
Optimum gaussian width for ewald sums = 5.540693 bohr.
Real space sum over 567 unit cells with max indices [  4  4  3  ]
Reciprocal space sum over 7803 terms with max indices [  8  8  13  ]

Computing DFT-D3 correction:
# coordination-number C 3.301 3.323 3.336 3.332 3.313 3.291 3.325 3.551 3.329 3.313 3.303 3.341 3.301 3.301 3.323 3.713 3.268 3.302 3.320 3.334 3.326 3.304 3.302 3.330 3.335 3.319 3.301 3.270 3.545 3.322 3.302 3.306 3.317 3.301 3.314 3.328 3.708 3.332 3.292 3.314 3.333 3.333 3.322 3.303 2.991
# coordination-number N 3.172 3.182 3.177 3.184
# coordination-number Ti 6.810
# coordination-number O 2.093 1.174 2.947
# coordination-number H 0.988 0.988 1.040 1.003
# diagonal-C6 C 24.27 24.05 23.91 23.95 24.16 24.36 24.03 20.91 23.99 24.15 24.25 23.86 24.27 24.27 24.05 19.21 24.57 24.26 24.08 23.93 24.02 24.24 24.26 23.97 23.91 24.09 24.28 24.55 20.99 24.06 24.26 24.22 24.11 24.27 24.15 24.00 19.25 23.96 24.36 24.15 23.95 23.94 24.06 24.26 25.69
# diagonal-C6 N 15.60 15.60 15.60 15.60
# diagonal-C6 Ti 321.59
# diagonal-C6 O 10.39 12.63 10.37
# diagonal-C6 H 3.10 3.10 3.07 3.09
EvdW_6 =   -0.042950
EvdW_8 =   -0.033186

---------- Allocating electronic variables ----------
Initializing wave functions:  linear combination of atomic orbitals
C pseudo-atom occupations:   s ( 2 )  p ( 2 )
N pseudo-atom occupations:   s ( 2 )  p ( 3 )
Ti pseudo-atom occupations:   s ( 2 0 )  p ( 6 )  d ( 4 )
O pseudo-atom occupations:   s ( 2 )  p ( 4 )
H pseudo-atom occupations:   s ( 1 )
	FillingsUpdate:  mu: -0.160200000  nElectrons: 234.000000  magneticMoment: [ Abs: 0.00466  Tot: +0.00005 ]
LCAOMinimize: Iter:   0  G: -361.6533224074654527  |grad|_K:  8.134e-03  alpha:  1.000e+00
	FillingsUpdate:  mu: -0.160200000  nElectrons: 234.000000  magneticMoment: [ Abs: 0.00456  Tot: +0.00000 ]
LCAOMinimize: Iter:   1  G: -363.3109448916096085  |grad|_K:  1.757e-03  alpha:  2.219e-01  linmin: -9.964e-03  cgtest: -9.872e-01  t[s]:    298.78
LCAOMinimize: 	Wrong curvature in test step, increasing alphaT to 6.655981e-01.
	FillingsUpdate:  mu: -0.160200000  nElectrons: 234.000000  magneticMoment: [ Abs: 0.00464  Tot: -0.00000 ]
LCAOMinimize: Iter:   2  G: -364.7330210094822291  |grad|_K:  1.373e-03  alpha: -9.078e-02  linmin: -1.357e-01  cgtest:  2.801e-01  t[s]:    413.34
	FillingsUpdate:  mu: -0.160200000  nElectrons: 234.000000  magneticMoment: [ Abs: 0.00467  Tot: -0.00000 ]
LCAOMinimize: Iter:   3  G: -364.8884344206415449  |grad|_K:  1.049e-03  alpha:  6.061e-02  linmin: -1.633e-01  cgtest:  7.958e-01  t[s]:    529.95
LCAOMinimize: Encountered beta<0, resetting CG.
LCAOMinimize: 	Predicted alpha/alphaT>3.000000, increasing alphaT to 1.818262e-01.
	FillingsUpdate:  mu: -0.160200000  nElectrons: 234.000000  magneticMoment: [ Abs: 0.00475  Tot: -0.00005 ]
LCAOMinimize: Iter:   4  G: -364.9801094257619525  |grad|_K:  1.000e-03  alpha:  1.781e-01  linmin:  9.118e-02  cgtest: -1.521e-02  t[s]:    676.72
	FillingsUpdate:  mu: -0.160200000  nElectrons: 234.000000  magneticMoment: [ Abs: 0.00475  Tot: -0.00006 ]
LCAOMinimize: Iter:   5  G: -364.9801372279796965  |grad|_K:  1.011e-03  alpha:  2.158e-03  linmin: -1.238e-04  cgtest:  9.976e-01  t[s]:    793.95
LCAOMinimize: 	Predicted alpha/alphaT>3.000000, increasing alphaT to 6.475458e-03.
LCAOMinimize: 	Predicted alpha/alphaT>3.000000, increasing alphaT to 1.942637e-02.
	FillingsUpdate:  mu: -0.160200000  nElectrons: 234.000000  magneticMoment: [ Abs: 0.00475  Tot: -0.00002 ]
LCAOMinimize: Iter:   6  G: -364.9995713831709168  |grad|_K:  2.733e-04  alpha:  3.803e-02  linmin: -8.648e-02  cgtest:  9.483e-01  t[s]:    971.30
LCAOMinimize: Encountered beta<0, resetting CG.
LCAOMinimize: 	Wrong curvature in test step, increasing alphaT to 1.140840e-01.
	FillingsUpdate:  mu: -0.160200000  nElectrons: 234.000000  magneticMoment: [ Abs: 0.00475  Tot: -0.00002 ]
LCAOMinimize: Iter:   7  G: -365.0025632895510626  |grad|_K:  1.865e-04  alpha: -1.074e-01  linmin: -1.327e-01  cgtest:  9.313e-01  t[s]:   1084.99
LCAOMinimize: Encountered beta<0, resetting CG.
	FillingsUpdate:  mu: -0.160200000  nElectrons: 234.000000  magneticMoment: [ Abs: 0.00480  Tot: -0.00002 ]
LCAOMinimize: Iter:   8  G: -365.0049077552120025  |grad|_K:  1.751e-04  alpha:  2.290e-01  linmin: -3.928e-03  cgtest: -5.816e-03  t[s]:   1201.34
	FillingsUpdate:  mu: -0.160200000  nElectrons: 234.000000  magneticMoment: [ Abs: 0.00486  Tot: -0.00005 ]
LCAOMinimize: Iter:   9  G: -365.0065214956446198  |grad|_K:  7.165e-05  alpha:  9.086e-02  linmin: -6.463e-02  cgtest:  3.541e-01  t[s]:   1317.41
LCAOMinimize: 	Predicted alpha/alphaT>3.000000, increasing alphaT to 2.725888e-01.
	FillingsUpdate:  mu: -0.160200000  nElectrons: 234.000000  magneticMoment: [ Abs: 0.00500  Tot: -0.00010 ]
LCAOMinimize: Iter:  10  G: -365.0076742066891597  |grad|_K:  6.118e-05  alpha:  5.115e-01  linmin:  1.454e-02  cgtest: -2.014e-01  t[s]:   1463.67
	FillingsUpdate:  mu: -0.160200000  nElectrons: 234.000000  magneticMoment: [ Abs: 0.00512  Tot: -0.00013 ]
LCAOMinimize: Iter:  11  G: -365.0081101621715902  |grad|_K:  6.564e-05  alpha:  2.467e-01  linmin:  7.275e-03  cgtest:  6.327e-02  t[s]:   1580.15
	FillingsUpdate:  mu: -0.160200000  nElectrons: 234.000000  magneticMoment: [ Abs: 0.00521  Tot: -0.00018 ]
LCAOMinimize: Iter:  12  G: -365.0083301584710966  |grad|_K:  1.908e-05  alpha:  8.583e-02  linmin:  5.854e-02  cgtest:  3.994e-01  t[s]:   1696.88
LCAOMinimize: Encountered beta<0, resetting CG.
	FillingsUpdate:  mu: -0.160200000  nElectrons: 234.000000  magneticMoment: [ Abs: 0.00528  Tot: -0.00021 ]
LCAOMinimize: Iter:  13  G: -365.0083680482239856  |grad|_K:  1.155e-05  alpha:  1.843e-01  linmin: -9.820e-02  cgtest:  8.229e-01  t[s]:   1812.95
LCAOMinimize: Encountered beta<0, resetting CG.
	FillingsUpdate:  mu: -0.160200000  nElectrons: 234.000000  magneticMoment: [ Abs: 0.00531  Tot: -0.00022 ]
LCAOMinimize: Iter:  14  G: -365.0083702295810895  |grad|_K:  9.715e-06  alpha:  9.876e-02  linmin: -1.285e-01  cgtest:  8.689e-01  t[s]:   1928.96
LCAOMinimize: Encountered beta<0, resetting CG.
	FillingsUpdate:  mu: -0.160200000  nElectrons: 234.000000  magneticMoment: [ Abs: 0.00533  Tot: -0.00022 ]
LCAOMinimize: Iter:  15  G: -365.0083712049581663  |grad|_K:  8.647e-06  alpha:  5.814e-02  linmin: -1.429e-01  cgtest:  9.721e-01  t[s]:   2045.39
LCAOMinimize: Encountered beta<0, resetting CG.
	FillingsUpdate:  mu: -0.160200000  nElectrons: 234.000000  magneticMoment: [ Abs: 0.00534  Tot: -0.00023 ]
LCAOMinimize: Iter:  16  G: -365.0083712623018073  |grad|_K:  8.287e-06  alpha:  2.930e-02  linmin: -1.479e-01  cgtest:  1.001e+00  t[s]:   2161.98
LCAOMinimize: Encountered beta<0, resetting CG.
LCAOMinimize: Converged (|Delta G|<1.000000e-06 for 2 iters).
----- createFluidSolver() ----- (Fluid-side solver setup)
   Initializing fluid molecule 'H2O'
     Initializing site 'O'
       Electron density: proportional to exp(-r/0.36935)*erfc((r-0.51523)/0.36823) with norm 6.826
       Charge density: gaussian nuclear width 0.478731 with net site charge 0.826
       Polarizability: cuspless exponential with width 0.32 and norm 3.73
       Hard sphere radius: 2.57003 bohrs
       Positions in reference frame:
         [ +0.000000 +0.000000 +0.000000 ]
     Initializing site 'H'
       Electron density: proportional to exp(-r/0.34641)*erfc((r-0)/0.390882) with norm 0.587
       Charge density: gaussian nuclear width 0.377945 with net site charge -0.413
       Polarizability: cuspless exponential with width 0.39 and norm 3.3
       Positions in reference frame:
         [ +0.000000 -1.441945 +1.122523 ]
         [ +0.000000 +1.441945 +1.122523 ]
     Net charge: 0   dipole magnitude: 0.927204
     Initializing spherical shell mfKernel with radius 2.61727 Bohr
     deltaS corrections:
       site 'O': -7.54299
       site 'H': -6.83917
   Initializing fluid molecule 'Na+'
     Initializing site 'Na'
       Electron density: proportional to exp(-r/0.19682)*erfc((r-0.71491)/0.41314) with norm 8.1383
       Charge density: gaussian nuclear width 0.365347 with net site charge -1
       Hard sphere radius: 1.86327 bohrs
       Positions in reference frame:
         [ +0.000000 +0.000000 +0.000000 ]
     Net charge: -1   dipole magnitude: 0
     Initializing gaussian mfKernel with width: 1.55004 Bohr
     deltaS corrections:
       site 'Na': -22.3555
   Initializing fluid molecule 'F-'
     Initializing site 'F'
       Electron density: proportional to exp(-r/0.38886)*erfc((r-0)/0.438782) with norm 8
       Charge density: gaussian nuclear width 0.374796 with net site charge 1
       Hard sphere radius: 2.39995 bohrs
       Positions in reference frame:
         [ +0.000000 +0.000000 +0.000000 ]
     Net charge: 1   dipole magnitude: 0
     Initializing gaussian mfKernel with width: 1.59012 Bohr
     deltaS corrections:
       site 'F': -9.04335

Correction to mu due to finite nuclear width = -0.0114793
   Cavity determined by nc: 0.00142 and sigma: 0.707107
   Nonlocal vdW cavity from gaussian model electron density with norm = 8 and sigma = 0.993594 bohr
   Charge asymmetry in cavity with sensitivity pCavity = 36.5 e-bohr/Eh
   Electrostatic cavity expanded by eta = 1.46 bohrs
   Weighted density cavitation model constrained by Nbulk: 0.0049383 bohr^-3, Pvap: 3.14029 kPa, Rvdw: 2.61727 bohr and sigmaBulk: 4.62e-05 Eh/bohr^2 at T: 298 K.
   Weighted density dispersion model using vdW pair potentials with single solvent site with sqrtC6eff: 0.77 SI.


---- Citations for features of the code used in this run ----

   Software package:
      R. Sundararaman, K. Letchworth-Weaver, K.A. Schwarz, D. Gunceler, Y. Ozhabes and T.A. Arias, 'JDFTx: software for joint density-functional theory', SoftwareX 6, 278 (2017)

   gga-PBE exchange-correlation functional:
      J.P. Perdew, K. Burke and M. Ernzerhof, Phys. Rev. Lett. 77, 3865 (1996)

   Pseudopotentials:
      KF Garrity, JW Bennett, KM Rabe and D Vanderbilt, Comput. Mater. Sci. 81, 446 (2014)

   DFT-D3 dispersion correction:
      S. Grimme, J. Antony, S. Ehrlich and H. Krieg, J. Chem. Phys. 132, 154104 (2010)

   DFT-D2 dispersion correction:
      S. Grimme, J. Comput. Chem. 27, 1787 (2006)

   Charge-asymmetric nonlocally-determined local-electric (CANDLE) solvation model:
      R. Sundararaman and W.A. Goddard III, J. Chem. Phys. 142, 064107 (2015)

   Total energy minimization with Auxiliary Hamiltonian:
      C. Freysoldt, S. Boeck, and J. Neugebauer, Phys. Rev. B 79, 241103(R) (2009)

   Grand-canonical (fixed-potential) DFT:
      R. Sundararaman, W. A. Goddard III and T. A. Arias, J. Chem. Phys. 146, 114104 (2017)

   Linear-tetrahedron sampling for density of states:
      G. Lehmann and M. Taut, Phys. status solidi (b) 54, 469 (1972)

This list may not be complete. Please suggest additional citations or
report any other bugs at https://github.com/shankar1729/jdftx/issues

Initialization completed successfully at t[s]:   2178.00


Computing DFT-D3 correction:
# coordination-number C 3.301 3.323 3.336 3.332 3.313 3.291 3.325 3.551 3.329 3.313 3.303 3.341 3.301 3.301 3.323 3.713 3.268 3.302 3.320 3.334 3.326 3.304 3.302 3.330 3.335 3.319 3.301 3.270 3.545 3.322 3.302 3.306 3.317 3.301 3.314 3.328 3.708 3.332 3.292 3.314 3.333 3.333 3.322 3.303 2.991
# coordination-number N 3.172 3.182 3.177 3.184
# coordination-number Ti 6.810
# coordination-number O 2.093 1.174 2.947
# coordination-number H 0.988 0.988 1.040 1.003
# diagonal-C6 C 24.27 24.05 23.91 23.95 24.16 24.36 24.03 20.91 23.99 24.15 24.25 23.86 24.27 24.27 24.05 19.21 24.57 24.26 24.08 23.93 24.02 24.24 24.26 23.97 23.91 24.09 24.28 24.55 20.99 24.06 24.26 24.22 24.11 24.27 24.15 24.00 19.25 23.96 24.36 24.15 23.95 23.94 24.06 24.26 25.69
# diagonal-C6 N 15.60 15.60 15.60 15.60
# diagonal-C6 Ti 321.59
# diagonal-C6 O 10.39 12.63 10.37
# diagonal-C6 H 3.10 3.10 3.07 3.09
EvdW_6 =   -0.042950
EvdW_8 =   -0.033186
Fluid solver invoked on fresh (random / LCAO) wavefunctions
Running a vacuum solve first:

-------- Initial electronic minimization -----------
	FillingsUpdate:  mu: -0.129156577  nElectrons: 234.000000  magneticMoment: [ Abs: 0.00534  Tot: -0.00023 ]
ElecMinimize: Iter:   0  G: -365.007656366943081  |grad|_K:  1.424e-04  alpha:  1.000e+00
	FillingsUpdate:  mu: -0.082817817  nElectrons: 234.000000  magneticMoment: [ Abs: 0.00352  Tot: -0.00032 ]
	SubspaceRotationAdjust: set factor to 1
ElecMinimize: Iter:   1  G: -368.009339585150997  |grad|_K:  5.538e-05  alpha:  6.826e-01  linmin:  2.853e-05  t[s]:   2372.62
	FillingsUpdate:  mu: -0.027528004  nElectrons: 234.000000  magneticMoment: [ Abs: 0.00527  Tot: -0.00246 ]
	SubspaceRotationAdjust: set factor to 0.585
ElecMinimize: Iter:   2  G: -368.050495368043983  |grad|_K:  9.305e-05  alpha:  1.018e-01  linmin:  6.100e-03  t[s]:   2491.18
ElecMinimize: 	Bad step direction: g.d > 0.
ElecMinimize: 	Undoing step.
ElecMinimize: 	Step failed: resetting search direction.
	FillingsUpdate:  mu: -0.027528004  nElectrons: 234.000000  magneticMoment: [ Abs: 0.00527  Tot: -0.00246 ]
	SubspaceRotationAdjust: set factor to 0.378
ElecMinimize: Iter:   3  G: -368.050495368043414  |grad|_K:  7.479e-05  alpha:  0.000e+00
	FillingsUpdate:  mu: -0.057733653  nElectrons: 234.000000  magneticMoment: [ Abs: 0.00390  Tot: -0.00084 ]
	SubspaceRotationAdjust: set factor to 0.235
ElecMinimize: Iter:   4  G: -368.130381281546875  |grad|_K:  3.295e-05  alpha:  7.509e-02  linmin: -9.827e-04  t[s]:   2697.30
ElecMinimize: 	Predicted alpha/alphaT>3.000000, increasing alphaT to 2.252842e-01.
	FillingsUpdate:  mu: -0.098570759  nElectrons: 234.000000  magneticMoment: [ Abs: 0.00442  Tot: -0.00347 ]
	SubspaceRotationAdjust: set factor to 0.151
ElecMinimize: Iter:   5  G: -368.271678289996260  |grad|_K:  3.308e-05  alpha:  6.084e-01  linmin:  7.240e-03  t[s]:   2845.91
ElecMinimize: 	Step increased G by 2.174938e-05, reducing alpha to 1.469280e-03.
ElecMinimize: 	Step increased G by 1.528247e-05, reducing alpha to 1.469280e-04.
ElecMinimize: 	Step increased G by 3.794685e-05, reducing alpha to 1.469280e-05.
ElecMinimize: 	Step failed to reduce G after 3 attempts. Quitting step.
ElecMinimize: 	Undoing step.
ElecMinimize: 	Step failed: resetting search direction.
	FillingsUpdate:  mu: -0.098633673  nElectrons: 234.000000  magneticMoment: [ Abs: 0.00442  Tot: -0.00347 ]
	SubspaceRotationAdjust: set factor to 0.133
	SubspaceRotationAdjust: resetting CG because factor has changed by 0.133054
ElecMinimize: 	State modified externally: resetting search direction.
ElecMinimize: Iter:   6  G: -368.271640068102897  |grad|_K:  2.790e-05  alpha:  1.469e-05
	FillingsUpdate:  mu: -0.044615102  nElectrons: 234.000000  magneticMoment: [ Abs: 0.00408  Tot: -0.00207 ]
	SubspaceRotationAdjust: set factor to 0.0695
ElecMinimize: Iter:   7  G: -368.322945569026047  |grad|_K:  1.173e-05  alpha:  3.881e-01  linmin: -3.767e-03  t[s]:   3382.35
	FillingsUpdate:  mu: -0.067040085  nElectrons: 234.000000  magneticMoment: [ Abs: 0.00442  Tot: -0.00357 ]
	SubspaceRotationAdjust: set factor to 0.053
ElecMinimize: Iter:   8  G: -368.344706429294376  |grad|_K:  1.296e-05  alpha:  7.799e-01  linmin:  2.396e-03  t[s]:   3501.09
	FillingsUpdate:  mu: -0.074999177  nElectrons: 234.000000  magneticMoment: [ Abs: 0.00540  Tot: -0.00498 ]
	SubspaceRotationAdjust: set factor to 0.0603
ElecMinimize: Iter:   9  G: -368.353644055344091  |grad|_K:  1.126e-05  alpha:  2.975e-01  linmin: -6.361e-04  t[s]:   3619.71
	FillingsUpdate:  mu: -0.053874092  nElectrons: 234.000000  magneticMoment: [ Abs: 0.00604  Tot: -0.00565 ]
	SubspaceRotationAdjust: set factor to 0.0676
ElecMinimize: Iter:  10  G: -368.361677871247878  |grad|_K:  7.430e-06  alpha:  2.711e-01  linmin:  4.101e-05  t[s]:   3738.23
	FillingsUpdate:  mu: -0.040239840  nElectrons: 234.000000  magneticMoment: [ Abs: 0.00616  Tot: -0.00558 ]
	SubspaceRotationAdjust: set factor to 0.0716
ElecMinimize: Iter:  11  G: -368.365169114758373  |grad|_K:  5.618e-06  alpha:  2.882e-01  linmin: -2.732e-04  t[s]:   3856.30
	FillingsUpdate:  mu: -0.045837131  nElectrons: 234.000000  magneticMoment: [ Abs: 0.00633  Tot: -0.00558 ]
	SubspaceRotationAdjust: set factor to 0.0768
ElecMinimize: Iter:  12  G: -368.367232014977787  |grad|_K:  3.873e-06  alpha:  2.900e-01  linmin: -1.101e-04  t[s]:   3974.82
	FillingsUpdate:  mu: -0.047284982  nElectrons: 234.000000  magneticMoment: [ Abs: 0.00685  Tot: -0.00608 ]
	SubspaceRotationAdjust: set factor to 0.0836
ElecMinimize: Iter:  13  G: -368.368507159419153  |grad|_K:  3.909e-06  alpha:  3.834e-01  linmin: -7.762e-06  t[s]:   4092.99
	FillingsUpdate:  mu: -0.049817647  nElectrons: 234.000000  magneticMoment: [ Abs: 0.00802  Tot: -0.00730 ]
	SubspaceRotationAdjust: set factor to 0.09
ElecMinimize: Iter:  14  G: -368.369876376434831  |grad|_K:  3.419e-06  alpha:  4.078e-01  linmin:  1.128e-05  t[s]:   4211.55
	FillingsUpdate:  mu: -0.046515302  nElectrons: 234.000000  magneticMoment: [ Abs: 0.00910  Tot: -0.00835 ]
	SubspaceRotationAdjust: set factor to 0.104
ElecMinimize: Iter:  15  G: -368.370619548345132  |grad|_K:  2.639e-06  alpha:  2.903e-01  linmin: -2.307e-06  t[s]:   4329.00
	FillingsUpdate:  mu: -0.046098190  nElectrons: 234.000000  magneticMoment: [ Abs: 0.01074  Tot: -0.00993 ]
	SubspaceRotationAdjust: set factor to 0.108
ElecMinimize: Iter:  16  G: -368.371262570730835  |grad|_K:  2.878e-06  alpha:  4.205e-01  linmin:  3.416e-06  t[s]:   4447.11
	FillingsUpdate:  mu: -0.046827561  nElectrons: 234.000000  magneticMoment: [ Abs: 0.01349  Tot: -0.01267 ]
	SubspaceRotationAdjust: set factor to 0.131
ElecMinimize: Iter:  17  G: -368.371895140788922  |grad|_K:  2.359e-06  alpha:  3.479e-01  linmin:  3.410e-06  t[s]:   4565.01
	FillingsUpdate:  mu: -0.048698103  nElectrons: 234.000000  magneticMoment: [ Abs: 0.01679  Tot: -0.01595 ]
	SubspaceRotationAdjust: set factor to 0.129
ElecMinimize: Iter:  18  G: -368.372307839117809  |grad|_K:  2.385e-06  alpha:  3.382e-01  linmin:  9.183e-06  t[s]:   4683.24
	FillingsUpdate:  mu: -0.048497713  nElectrons: 234.000000  magneticMoment: [ Abs: 0.02258  Tot: -0.02160 ]
	SubspaceRotationAdjust: set factor to 0.158
ElecMinimize: Iter:  19  G: -368.372785229543240  |grad|_K:  2.038e-06  alpha:  3.842e-01  linmin:  2.642e-06  t[s]:   4801.41
	FillingsUpdate:  mu: -0.047456832  nElectrons: 234.000000  magneticMoment: [ Abs: 0.02693  Tot: -0.02579 ]
	SubspaceRotationAdjust: set factor to 0.147
ElecMinimize: Iter:  20  G: -368.373013606537654  |grad|_K:  1.563e-06  alpha:  2.509e-01  linmin:  2.625e-07  t[s]:   4919.67
	FillingsUpdate:  mu: -0.047619217  nElectrons: 234.000000  magneticMoment: [ Abs: 0.03598  Tot: -0.03469 ]
	SubspaceRotationAdjust: set factor to 0.175
ElecMinimize: Iter:  21  G: -368.373222723417200  |grad|_K:  1.484e-06  alpha:  3.904e-01  linmin:  4.666e-06  t[s]:   5037.04
	FillingsUpdate:  mu: -0.048608641  nElectrons: 234.000000  magneticMoment: [ Abs: 0.04723  Tot: -0.04582 ]
	SubspaceRotationAdjust: set factor to 0.156
ElecMinimize: Iter:  22  G: -368.373362278484080  |grad|_K:  1.242e-06  alpha:  2.889e-01  linmin:  2.254e-06  t[s]:   5154.89
	FillingsUpdate:  mu: -0.048887071  nElectrons: 234.000000  magneticMoment: [ Abs: 0.06371  Tot: -0.06202 ]
	SubspaceRotationAdjust: set factor to 0.188
ElecMinimize: Iter:  23  G: -368.373475487571227  |grad|_K:  1.007e-06  alpha:  3.345e-01  linmin: -3.342e-06  t[s]:   5273.88
	FillingsUpdate:  mu: -0.048415859  nElectrons: 234.000000  magneticMoment: [ Abs: 0.08432  Tot: -0.08227 ]
	SubspaceRotationAdjust: set factor to 0.182
ElecMinimize: Iter:  24  G: -368.373550539345047  |grad|_K:  9.722e-07  alpha:  3.364e-01  linmin: -1.412e-05  t[s]:   5391.59
	FillingsUpdate:  mu: -0.048253922  nElectrons: 234.000000  magneticMoment: [ Abs: 0.12380  Tot: -0.12141 ]
	SubspaceRotationAdjust: set factor to 0.223
ElecMinimize: Iter:  25  G: -368.373620538810599  |grad|_K:  8.510e-07  alpha:  3.359e-01  linmin:  4.774e-05  t[s]:   5509.99
	FillingsUpdate:  mu: -0.049458816  nElectrons: 234.000000  magneticMoment: [ Abs: 0.23050  Tot: -0.22718 ]
	SubspaceRotationAdjust: set factor to 0.156
ElecMinimize: Iter:  26  G: -368.373708474064529  |grad|_K:  1.859e-06  alpha:  6.474e-01  linmin:  6.126e-04  t[s]:   5628.61
	FillingsUpdate:  mu: -0.049782357  nElectrons: 234.000000  magneticMoment: [ Abs: 0.27216  Tot: -0.26841 ]
	SubspaceRotationAdjust: set factor to 0.129
ElecMinimize: Iter:  27  G: -368.373750943472430  |grad|_K:  1.849e-06  alpha:  4.852e-02  linmin: -8.095e-04  t[s]:   5746.42
ElecMinimize: 	Predicted alpha/alphaT>3.000000, increasing alphaT to 1.455581e-01.
	FillingsUpdate:  mu: -0.050488205  nElectrons: 234.000000  magneticMoment: [ Abs: 0.40437  Tot: -0.39854 ]
	SubspaceRotationAdjust: set factor to 0.143
ElecMinimize: Iter:  28  G: -368.373928696404221  |grad|_K:  2.010e-06  alpha:  1.733e-01  linmin:  2.821e-04  t[s]:   5893.30
	FillingsUpdate:  mu: -0.050813666  nElectrons: 234.000000  magneticMoment: [ Abs: 0.44793  Tot: -0.44100 ]
	SubspaceRotationAdjust: set factor to 0.152
ElecMinimize: Iter:  29  G: -368.373972527924025  |grad|_K:  2.064e-06  alpha:  5.987e-02  linmin:  5.518e-06  t[s]:   6010.04
	FillingsUpdate:  mu: -0.050904880  nElectrons: 234.000000  magneticMoment: [ Abs: 0.48539  Tot: -0.47705 ]
	SubspaceRotationAdjust: set factor to 0.157
ElecMinimize: Iter:  30  G: -368.374027114312184  |grad|_K:  1.936e-06  alpha:  5.865e-02  linmin: -6.726e-05  t[s]:   6126.21
	FillingsUpdate:  mu: -0.050635906  nElectrons: 234.000000  magneticMoment: [ Abs: 0.51268  Tot: -0.50268 ]
	SubspaceRotationAdjust: set factor to 0.172
ElecMinimize: Iter:  31  G: -368.374080272342781  |grad|_K:  1.679e-06  alpha:  6.218e-02  linmin: -1.609e-04  t[s]:   6242.91
	FillingsUpdate:  mu: -0.050178797  nElectrons: 234.000000  magneticMoment: [ Abs: 0.53107  Tot: -0.51921 ]
	SubspaceRotationAdjust: set factor to 0.241
ElecMinimize: Iter:  32  G: -368.374130233473579  |grad|_K:  1.410e-06  alpha:  7.462e-02  linmin: -2.444e-04  t[s]:   6359.09
	FillingsUpdate:  mu: -0.049863508  nElectrons: 234.000000  magneticMoment: [ Abs: 0.54463  Tot: -0.53065 ]
	SubspaceRotationAdjust: set factor to 0.296
ElecMinimize: Iter:  33  G: -368.374176452626671  |grad|_K:  1.342e-06  alpha:  9.626e-02  linmin: -2.269e-04  t[s]:   6476.18
	FillingsUpdate:  mu: -0.049719710  nElectrons: 234.000000  magneticMoment: [ Abs: 0.56643  Tot: -0.54939 ]
	SubspaceRotationAdjust: set factor to 0.304
ElecMinimize: Iter:  34  G: -368.374233745175161  |grad|_K:  1.570e-06  alpha:  1.326e-01  linmin: -1.730e-04  t[s]:   6592.50
	FillingsUpdate:  mu: -0.049974136  nElectrons: 234.000000  magneticMoment: [ Abs: 0.61894  Tot: -0.59716 ]
	SubspaceRotationAdjust: set factor to 0.426
ElecMinimize: Iter:  35  G: -368.374318488563347  |grad|_K:  1.665e-06  alpha:  1.467e-01  linmin: -3.257e-05  t[s]:   6709.07
	FillingsUpdate:  mu: -0.050317523  nElectrons: 234.000000  magneticMoment: [ Abs: 0.69581  Tot: -0.66873 ]
	SubspaceRotationAdjust: set factor to 0.489
ElecMinimize: Iter:  36  G: -368.374407244098393  |grad|_K:  2.019e-06  alpha:  1.432e-01  linmin: -7.346e-06  t[s]:   6825.28
	FillingsUpdate:  mu: -0.049915557  nElectrons: 234.000000  magneticMoment: [ Abs: 0.82351  Tot: -0.78676 ]
	SubspaceRotationAdjust: set factor to 0.612
ElecMinimize: Iter:  37  G: -368.374545393832705  |grad|_K:  2.501e-06  alpha:  1.541e-01  linmin:  2.712e-05  t[s]:   6941.89
	FillingsUpdate:  mu: -0.049292945  nElectrons: 234.000000  magneticMoment: [ Abs: 0.92044  Tot: -0.87501 ]
	SubspaceRotationAdjust: set factor to 0.74
ElecMinimize: Iter:  38  G: -368.374661187975846  |grad|_K:  2.800e-06  alpha:  7.832e-02  linmin: -4.702e-05  t[s]:   7058.09
	FillingsUpdate:  mu: -0.048904876  nElectrons: 234.000000  magneticMoment: [ Abs: 1.03422  Tot: -0.97897 ]
	SubspaceRotationAdjust: set factor to 0.684
ElecMinimize: Iter:  39  G: -368.374788976691264  |grad|_K:  3.739e-06  alpha:  6.938e-02  linmin:  4.538e-05  t[s]:   7174.12
	FillingsUpdate:  mu: -0.048707433  nElectrons: 234.000000  magneticMoment: [ Abs: 1.13278  Tot: -1.06931 ]
	SubspaceRotationAdjust: set factor to 0.68
ElecMinimize: Iter:  40  G: -368.374888426747248  |grad|_K:  3.893e-06  alpha:  3.391e-02  linmin: -2.713e-07  t[s]:   7290.16
	FillingsUpdate:  mu: -0.048689264  nElectrons: 234.000000  magneticMoment: [ Abs: 1.21847  Tot: -1.14669 ]
	SubspaceRotationAdjust: set factor to 0.912
ElecMinimize: Iter:  41  G: -368.374987965559058  |grad|_K:  3.563e-06  alpha:  3.010e-02  linmin: -1.573e-05  t[s]:   7406.23
	FillingsUpdate:  mu: -0.048863572  nElectrons: 234.000000  magneticMoment: [ Abs: 1.28235  Tot: -1.20198 ]
	SubspaceRotationAdjust: set factor to 1.17
	SubspaceRotationAdjust: resetting CG because factor has changed by 8.79242
ElecMinimize: 	State modified externally: resetting search direction.
ElecMinimize: Iter:  42  G: -368.375080388533775  |grad|_K:  3.398e-06  alpha:  3.237e-02
ElecMinimize: 	Predicted alpha/alphaT>3.000000, increasing alphaT to 9.710525e-02.
ElecMinimize: 	Predicted alpha/alphaT>3.000000, increasing alphaT to 2.913157e-01.
	FillingsUpdate:  mu: -0.051603610  nElectrons: 234.000000  magneticMoment: [ Abs: 1.29067  Tot: -1.19948 ]
	SubspaceRotationAdjust: set factor to 0.708
ElecMinimize: Iter:  43  G: -368.375918842332112  |grad|_K:  4.921e-06  alpha:  3.308e-01  linmin:  7.302e-06  t[s]:   7763.63
	FillingsUpdate:  mu: -0.048599263  nElectrons: 234.000000  magneticMoment: [ Abs: 1.39964  Tot: -1.29675 ]
	SubspaceRotationAdjust: set factor to 0.581
ElecMinimize: Iter:  44  G: -368.376828162000265  |grad|_K:  2.138e-06  alpha:  1.908e-01  linmin:  6.273e-05  t[s]:   7880.54
	FillingsUpdate:  mu: -0.049235776  nElectrons: 234.000000  magneticMoment: [ Abs: 1.41250  Tot: -1.29404 ]
	SubspaceRotationAdjust: set factor to 0.449
ElecMinimize: Iter:  45  G: -368.377207888035230  |grad|_K:  1.649e-06  alpha:  3.870e-01  linmin:  1.194e-04  t[s]:   7997.15
	FillingsUpdate:  mu: -0.048714673  nElectrons: 234.000000  magneticMoment: [ Abs: 1.43997  Tot: -1.32184 ]
	SubspaceRotationAdjust: set factor to 0.272
ElecMinimize: Iter:  46  G: -368.377311072690986  |grad|_K:  9.330e-07  alpha:  1.837e-01  linmin:  2.272e-04  t[s]:   8113.30
	FillingsUpdate:  mu: -0.049440567  nElectrons: 234.000000  magneticMoment: [ Abs: 1.42919  Tot: -1.30164 ]
	SubspaceRotationAdjust: set factor to 0.22
ElecMinimize: Iter:  47  G: -368.377381029283470  |grad|_K:  7.792e-07  alpha:  3.790e-01  linmin:  3.618e-04  t[s]:   8230.25
	FillingsUpdate:  mu: -0.048905898  nElectrons: 234.000000  magneticMoment: [ Abs: 1.44510  Tot: -1.30726 ]
	SubspaceRotationAdjust: set factor to 0.286
ElecMinimize: Iter:  48  G: -368.377454056439774  |grad|_K:  5.496e-07  alpha:  5.580e-01  linmin: -5.288e-05  t[s]:   8346.30
	FillingsUpdate:  mu: -0.048471065  nElectrons: 234.000000  magneticMoment: [ Abs: 1.46365  Tot: -1.32160 ]
	SubspaceRotationAdjust: set factor to 0.256
ElecMinimize: Iter:  49  G: -368.377488805934831  |grad|_K:  5.287e-07  alpha:  5.223e-01  linmin: -2.462e-05  t[s]:   8463.15
	FillingsUpdate:  mu: -0.048978656  nElectrons: 234.000000  magneticMoment: [ Abs: 1.46522  Tot: -1.31581 ]
	SubspaceRotationAdjust: set factor to 0.226
ElecMinimize: Iter:  50  G: -368.377522009468919  |grad|_K:  3.924e-07  alpha:  5.401e-01  linmin:  4.981e-06  t[s]:   8578.92
	FillingsUpdate:  mu: -0.048960398  nElectrons: 234.000000  magneticMoment: [ Abs: 1.47082  Tot: -1.31913 ]
	SubspaceRotationAdjust: set factor to 0.234
ElecMinimize: Iter:  51  G: -368.377538908485747  |grad|_K:  3.127e-07  alpha:  5.005e-01  linmin:  5.213e-06  t[s]:   8695.34
	FillingsUpdate:  mu: -0.048781354  nElectrons: 234.000000  magneticMoment: [ Abs: 1.47517  Tot: -1.32233 ]
	SubspaceRotationAdjust: set factor to 0.232
ElecMinimize: Iter:  52  G: -368.377551443376660  |grad|_K:  2.569e-07  alpha:  5.848e-01  linmin:  5.913e-06  t[s]:   8811.33
	FillingsUpdate:  mu: -0.048907530  nElectrons: 234.000000  magneticMoment: [ Abs: 1.47143  Tot: -1.31720 ]
	SubspaceRotationAdjust: set factor to 0.215
ElecMinimize: Iter:  53  G: -368.377559289689430  |grad|_K:  2.056e-07  alpha:  5.422e-01  linmin:  5.202e-06  t[s]:   8928.09
	FillingsUpdate:  mu: -0.048887951  nElectrons: 234.000000  magneticMoment: [ Abs: 1.47120  Tot: -1.31726 ]
	SubspaceRotationAdjust: set factor to 0.231
ElecMinimize: Iter:  54  G: -368.377564054265349  |grad|_K:  1.507e-07  alpha:  5.144e-01  linmin:  3.526e-06  t[s]:   9043.85
	FillingsUpdate:  mu: -0.048862255  nElectrons: 234.000000  magneticMoment: [ Abs: 1.47082  Tot: -1.31748 ]
	SubspaceRotationAdjust: set factor to 0.235
ElecMinimize: Iter:  55  G: -368.377566538556266  |grad|_K:  1.115e-07  alpha:  4.991e-01  linmin:  2.586e-06  t[s]:   9160.10
	FillingsUpdate:  mu: -0.048922186  nElectrons: 234.000000  magneticMoment: [ Abs: 1.46799  Tot: -1.31509 ]
	SubspaceRotationAdjust: set factor to 0.227
ElecMinimize: Iter:  56  G: -368.377568192397746  |grad|_K:  1.004e-07  alpha:  6.064e-01  linmin:  2.459e-06  t[s]:   9275.48
	FillingsUpdate:  mu: -0.048869847  nElectrons: 234.000000  magneticMoment: [ Abs: 1.46721  Tot: -1.31539 ]
	SubspaceRotationAdjust: set factor to 0.231
ElecMinimize: Iter:  57  G: -368.377569443449715  |grad|_K:  8.863e-08  alpha:  5.661e-01  linmin:  1.534e-06  t[s]:   9391.01
	FillingsUpdate:  mu: -0.048816267  nElectrons: 234.000000  magneticMoment: [ Abs: 1.46607  Tot: -1.31534 ]
	SubspaceRotationAdjust: set factor to 0.229
ElecMinimize: Iter:  58  G: -368.377570514197885  |grad|_K:  7.179e-08  alpha:  6.224e-01  linmin:  2.384e-06  t[s]:   9506.38
	FillingsUpdate:  mu: -0.048845052  nElectrons: 234.000000  magneticMoment: [ Abs: 1.46406  Tot: -1.31385 ]
	SubspaceRotationAdjust: set factor to 0.229
ElecMinimize: Iter:  59  G: -368.377571097379928  |grad|_K:  5.589e-08  alpha:  5.169e-01  linmin:  5.671e-07  t[s]:   9621.64
	FillingsUpdate:  mu: -0.048832987  nElectrons: 234.000000  magneticMoment: [ Abs: 1.46345  Tot: -1.31375 ]
	SubspaceRotationAdjust: set factor to 0.215
ElecMinimize: Iter:  60  G: -368.377571432491891  |grad|_K:  4.013e-08  alpha:  4.892e-01  linmin:  4.073e-07  t[s]:   9736.93
	FillingsUpdate:  mu: -0.048814431  nElectrons: 234.000000  magneticMoment: [ Abs: 1.46315  Tot: -1.31369 ]
	SubspaceRotationAdjust: set factor to 0.238
ElecMinimize: Iter:  61  G: -368.377571625340465  |grad|_K:  3.045e-08  alpha:  5.458e-01  linmin: -6.133e-07  t[s]:   9852.35
	FillingsUpdate:  mu: -0.048813528  nElectrons: 234.000000  magneticMoment: [ Abs: 1.46283  Tot: -1.31345 ]
	SubspaceRotationAdjust: set factor to 0.238
ElecMinimize: Iter:  62  G: -368.377571732228660  |grad|_K:  2.489e-08  alpha:  5.245e-01  linmin:  3.669e-07  t[s]:   9967.47
	FillingsUpdate:  mu: -0.048805549  nElectrons: 234.000000  magneticMoment: [ Abs: 1.46291  Tot: -1.31369 ]
	SubspaceRotationAdjust: set factor to 0.244
ElecMinimize: Iter:  63  G: -368.377571806654487  |grad|_K:  1.900e-08  alpha:  5.477e-01  linmin: -6.263e-07  t[s]:  10082.40
	FillingsUpdate:  mu: -0.048804773  nElectrons: 234.000000  magneticMoment: [ Abs: 1.46288  Tot: -1.31373 ]
	SubspaceRotationAdjust: set factor to 0.262
ElecMinimize: Iter:  64  G: -368.377571849557000  |grad|_K:  1.536e-08  alpha:  5.412e-01  linmin:  4.741e-07  t[s]:  10197.19
ElecMinimize: Converged (|Delta G|<1.000000e-07 for 2 iters).
Setting wave functions to eigenvectors of Hamiltonian
Converging empty states (this may take a while): |deigs|: 4.796e-03
Vacuum energy after initial minimize, F = -368.377571849557000

Shifting auxilliary hamiltonian by -0.111395 to set nElectrons=234.000000

-------- Electronic minimization -----------
	Linear fluid (dielectric constant: 78.4, screening length: 8.12261 Bohr) occupying 0.688155 of unit cell:	Completed after 23 iterations at t[s]:  10721.05
	FillingsUpdate:  mu: -0.160200000  nElectrons: 234.000000  magneticMoment: [ Abs: 1.46272  Tot: -1.31354 ]
ElecMinimize: Iter:   0  G: -368.384948037124730  |grad|_K:  4.424e-05  alpha:  1.000e+00
	Linear fluid (dielectric constant: 78.4, screening length: 8.12261 Bohr) occupying 0.698771 of unit cell:	Completed after 21 iterations at t[s]:  10836.13
	Linear fluid (dielectric constant: 78.4, screening length: 8.12261 Bohr) occupying 0.699013 of unit cell:	Completed after 20 iterations at t[s]:  10885.61
	FillingsUpdate:  mu: -0.160200000  nElectrons: 233.349776  magneticMoment: [ Abs: 1.05542  Tot: -0.90300 ]
	SubspaceRotationAdjust: set factor to 0.229
ElecMinimize: Iter:   1  G: -368.448881804295638  |grad|_K:  6.330e-06  alpha:  5.321e-01  linmin: -3.521e-03  t[s]:  10936.49
	Linear fluid (dielectric constant: 78.4, screening length: 8.12261 Bohr) occupying 0.699612 of unit cell:	Completed after 14 iterations at t[s]:  10987.83
	Linear fluid (dielectric constant: 78.4, screening length: 8.12261 Bohr) occupying 0.699919 of unit cell:	Completed after 12 iterations at t[s]:  11032.07
	FillingsUpdate:  mu: -0.160200000  nElectrons: 233.212788  magneticMoment: [ Abs: 0.96888  Tot: -0.77295 ]
	SubspaceRotationAdjust: set factor to 0.19
ElecMinimize: Iter:   2  G: -368.456460776387473  |grad|_K:  7.494e-06  alpha:  8.277e-01  linmin: -3.128e-04  t[s]:  11082.75
	Linear fluid (dielectric constant: 78.4, screening length: 8.12261 Bohr) occupying 0.701255 of unit cell:	Completed after 21 iterations at t[s]:  11138.69
	Linear fluid (dielectric constant: 78.4, screening length: 8.12261 Bohr) occupying 0.700118 of unit cell:	Completed after 20 iterations at t[s]:  11188.00
	FillingsUpdate:  mu: -0.160200000  nElectrons: 233.054894  magneticMoment: [ Abs: 0.85446  Tot: -0.64107 ]
	SubspaceRotationAdjust: set factor to 0.28
ElecMinimize: Iter:   3  G: -368.460382836448616  |grad|_K:  3.759e-06  alpha:  1.767e-01  linmin: -3.286e-03  t[s]:  11238.62
	Linear fluid (dielectric constant: 78.4, screening length: 8.12261 Bohr) occupying 0.700247 of unit cell:	Completed after 15 iterations at t[s]:  11290.43
	Linear fluid (dielectric constant: 78.4, screening length: 8.12261 Bohr) occupying 0.700320 of unit cell:	Completed after 14 iterations at t[s]:  11336.24
	FillingsUpdate:  mu: -0.160200000  nElectrons: 232.901650  magneticMoment: [ Abs: 0.75425  Tot: -0.54653 ]
	SubspaceRotationAdjust: set factor to 0.167
ElecMinimize: Iter:   4  G: -368.461620141386163  |grad|_K:  7.221e-06  alpha:  2.780e-01  linmin:  1.302e-03  t[s]:  11386.41
	Linear fluid (dielectric constant: 78.4, screening length: 8.12261 Bohr) occupying 0.701556 of unit cell:	Completed after 18 iterations at t[s]:  11439.99
	Linear fluid (dielectric constant: 78.4, screening length: 8.12261 Bohr) occupying 0.700513 of unit cell:	Completed after 17 iterations at t[s]:  11487.47
	FillingsUpdate:  mu: -0.160200000  nElectrons: 232.815385  magneticMoment: [ Abs: 0.71898  Tot: -0.52669 ]
	SubspaceRotationAdjust: set factor to 0.108
ElecMinimize: Iter:   5  G: -368.461905937222582  |grad|_K:  7.780e-06  alpha:  4.632e-02  linmin:  1.523e-04  t[s]:  11537.70
	Linear fluid (dielectric constant: 78.4, screening length: 8.12261 Bohr) occupying 0.700792 of unit cell:	Completed after 13 iterations at t[s]:  11588.54
	Linear fluid (dielectric constant: 78.4, screening length: 8.12261 Bohr) occupying 0.701060 of unit cell:	Completed after 12 iterations at t[s]:  11632.89
	FillingsUpdate:  mu: -0.160200000  nElectrons: 232.667614  magneticMoment: [ Abs: 0.70553  Tot: -0.55363 ]
	SubspaceRotationAdjust: set factor to 0.0914
ElecMinimize: Iter:   6  G: -368.463070532888992  |grad|_K:  7.033e-06  alpha:  9.057e-02  linmin: -1.345e-04  t[s]:  11682.98
	Linear fluid (dielectric constant: 78.4, screening length: 8.12261 Bohr) occupying 0.701571 of unit cell:	Completed after 13 iterations at t[s]:  11733.48
	Linear fluid (dielectric constant: 78.4, screening length: 8.12261 Bohr) occupying 0.701636 of unit cell:	Completed after 9 iterations at t[s]:  11776.00
	FillingsUpdate:  mu: -0.160200000  nElectrons: 232.625729  magneticMoment: [ Abs: 0.72767  Tot: -0.59273 ]
	SubspaceRotationAdjust: set factor to 0.123
ElecMinimize: Iter:   7  G: -368.464264713412717  |grad|_K:  4.531e-06  alpha:  1.022e-01  linmin:  1.550e-04  t[s]:  11825.85
	Linear fluid (dielectric constant: 78.4, screening length: 8.12261 Bohr) occupying 0.701898 of unit cell:	Completed after 14 iterations at t[s]:  11876.93
	Linear fluid (dielectric constant: 78.4, screening length: 8.12261 Bohr) occupying 0.701861 of unit cell:	Completed after 7 iterations at t[s]:  11918.37
	FillingsUpdate:  mu: -0.160200000  nElectrons: 232.629200  magneticMoment: [ Abs: 0.73999  Tot: -0.60825 ]
	SubspaceRotationAdjust: set factor to 0.119
ElecMinimize: Iter:   8  G: -368.464616781662869  |grad|_K:  4.240e-06  alpha:  8.783e-02  linmin:  2.110e-05  t[s]:  11968.17
	Linear fluid (dielectric constant: 78.4, screening length: 8.12261 Bohr) occupying 0.702058 of unit cell:	Completed after 12 iterations at t[s]:  12018.07
	Linear fluid (dielectric constant: 78.4, screening length: 8.12261 Bohr) occupying 0.702107 of unit cell:	Completed after 8 iterations at t[s]:  12059.98
	FillingsUpdate:  mu: -0.160200000  nElectrons: 232.623003  magneticMoment: [ Abs: 0.73995  Tot: -0.61016 ]
	SubspaceRotationAdjust: set factor to 0.104
ElecMinimize: Iter:   9  G: -368.465043657990918  |grad|_K:  4.665e-06  alpha:  1.103e-01  linmin:  3.371e-05  t[s]:  12109.86
	Linear fluid (dielectric constant: 78.4, screening length: 8.12261 Bohr) occupying 0.702377 of unit cell:	Completed after 9 iterations at t[s]:  12157.89
	Linear fluid (dielectric constant: 78.4, screening length: 8.12261 Bohr) occupying 0.702344 of unit cell:	Completed after 3 iterations at t[s]:  12196.57
	FillingsUpdate:  mu: -0.160200000  nElectrons: 232.590110  magneticMoment: [ Abs: 0.71310  Tot: -0.58285 ]
	SubspaceRotationAdjust: set factor to 0.0844
ElecMinimize: Iter:  10  G: -368.465497684464708  |grad|_K:  4.007e-06  alpha:  9.658e-02  linmin: -3.220e-06  t[s]:  12246.26
	Linear fluid (dielectric constant: 78.4, screening length: 8.12261 Bohr) occupying 0.702491 of unit cell:	Completed after 14 iterations at t[s]:  12297.78
	Linear fluid (dielectric constant: 78.4, screening length: 8.12261 Bohr) occupying 0.702462 of unit cell:	Completed after 8 iterations at t[s]:  12339.85
	FillingsUpdate:  mu: -0.160200000  nElectrons: 232.551426  magneticMoment: [ Abs: 0.67880  Tot: -0.54655 ]
	SubspaceRotationAdjust: set factor to 0.15
ElecMinimize: Iter:  11  G: -368.465771642768118  |grad|_K:  2.576e-06  alpha:  7.759e-02  linmin:  2.206e-06  t[s]:  12389.91
	Linear fluid (dielectric constant: 78.4, screening length: 8.12261 Bohr) occupying 0.702498 of unit cell:	Completed after 13 iterations at t[s]:  12440.74
	Linear fluid (dielectric constant: 78.4, screening length: 8.12261 Bohr) occupying 0.702503 of unit cell:	Completed after 3 iterations at t[s]:  12479.22
	FillingsUpdate:  mu: -0.160200000  nElectrons: 232.526149  magneticMoment: [ Abs: 0.65564  Tot: -0.52204 ]
	SubspaceRotationAdjust: set factor to 0.154
ElecMinimize: Iter:  12  G: -368.465898496414297  |grad|_K:  2.011e-06  alpha:  8.710e-02  linmin: -1.487e-05  t[s]:  12529.04
	Linear fluid (dielectric constant: 78.4, screening length: 8.12261 Bohr) occupying 0.702519 of unit cell:	Completed after 10 iterations at t[s]:  12577.80
	Linear fluid (dielectric constant: 78.4, screening length: 8.12261 Bohr) occupying 0.702525 of unit cell:	Completed after 7 iterations at t[s]:  12619.91
	FillingsUpdate:  mu: -0.160200000  nElectrons: 232.510067  magneticMoment: [ Abs: 0.63931  Tot: -0.50579 ]
	SubspaceRotationAdjust: set factor to 0.129
ElecMinimize: Iter:  13  G: -368.466006470742172  |grad|_K:  2.408e-06  alpha:  1.204e-01  linmin: -3.326e-05  t[s]:  12669.79
	Linear fluid (dielectric constant: 78.4, screening length: 8.12261 Bohr) occupying 0.702556 of unit cell:	Completed after 7 iterations at t[s]:  12719.15
	Linear fluid (dielectric constant: 78.4, screening length: 8.12261 Bohr) occupying 0.702563 of unit cell:	Completed after 3 iterations at t[s]:  12758.54
	FillingsUpdate:  mu: -0.160200000  nElectrons: 232.512843  magneticMoment: [ Abs: 0.63699  Tot: -0.50687 ]
	SubspaceRotationAdjust: set factor to 0.087
ElecMinimize: Iter:  14  G: -368.466202485988049  |grad|_K:  2.649e-06  alpha:  1.523e-01  linmin:  2.263e-06  t[s]:  12808.45
	Linear fluid (dielectric constant: 78.4, screening length: 8.12261 Bohr) occupying 0.702606 of unit cell:	Completed after 14 iterations at t[s]:  12860.80
	Linear fluid (dielectric constant: 78.4, screening length: 8.12261 Bohr) occupying 0.702592 of unit cell:	Completed after 10 iterations at t[s]:  12904.85
	FillingsUpdate:  mu: -0.160200000  nElectrons: 232.538919  magneticMoment: [ Abs: 0.65604  Tot: -0.53039 ]
	SubspaceRotationAdjust: set factor to 0.136
ElecMinimize: Iter:  15  G: -368.466358834657740  |grad|_K:  1.728e-06  alpha:  1.009e-01  linmin:  4.900e-06  t[s]:  12954.84
	Linear fluid (dielectric constant: 78.4, screening length: 8.12261 Bohr) occupying 0.702596 of unit cell:	Completed after 12 iterations at t[s]:  13005.95
	Linear fluid (dielectric constant: 78.4, screening length: 8.12261 Bohr) occupying 0.702596 of unit cell:	Completed after 3 iterations at t[s]:  13044.75
	FillingsUpdate:  mu: -0.160200000  nElectrons: 232.561248  magneticMoment: [ Abs: 0.67299  Tot: -0.55058 ]
	SubspaceRotationAdjust: set factor to 0.137
ElecMinimize: Iter:  16  G: -368.466433944484947  |grad|_K:  1.404e-06  alpha:  1.149e-01  linmin:  8.483e-06  t[s]:  13094.54
	Linear fluid (dielectric constant: 78.4, screening length: 8.12261 Bohr) occupying 0.702585 of unit cell:	Completed after 10 iterations at t[s]:  13143.55
	Linear fluid (dielectric constant: 78.4, screening length: 8.12261 Bohr) occupying 0.702579 of unit cell:	Completed after 8 iterations at t[s]:  13185.15
	FillingsUpdate:  mu: -0.160200000  nElectrons: 232.583057  magneticMoment: [ Abs: 0.68685  Tot: -0.56842 ]
	SubspaceRotationAdjust: set factor to 0.109
ElecMinimize: Iter:  17  G: -368.466508525752261  |grad|_K:  1.812e-06  alpha:  1.723e-01  linmin: -1.377e-05  t[s]:  13235.22
	Linear fluid (dielectric constant: 78.4, screening length: 8.12261 Bohr) occupying 0.702516 of unit cell:	Completed after 9 iterations at t[s]:  13283.70
	Linear fluid (dielectric constant: 78.4, screening length: 8.12261 Bohr) occupying 0.702515 of unit cell:	Completed after 0 iterations at t[s]:  13320.03
	FillingsUpdate:  mu: -0.160200000  nElectrons: 232.601020  magneticMoment: [ Abs: 0.68887  Tot: -0.57554 ]
	SubspaceRotationAdjust: set factor to 0.0966
ElecMinimize: Iter:  18  G: -368.466634288339435  |grad|_K:  1.717e-06  alpha:  1.738e-01  linmin: -3.228e-06  t[s]:  13370.00
	Linear fluid (dielectric constant: 78.4, screening length: 8.12261 Bohr) occupying 0.702432 of unit cell:	Completed after 10 iterations at t[s]:  13419.16
	Linear fluid (dielectric constant: 78.4, screening length: 8.12261 Bohr) occupying 0.702457 of unit cell:	Completed after 7 iterations at t[s]:  13460.18
	FillingsUpdate:  mu: -0.160200000  nElectrons: 232.602565  magneticMoment: [ Abs: 0.67762  Tot: -0.56622 ]
	SubspaceRotationAdjust: set factor to 0.133
ElecMinimize: Iter:  19  G: -368.466713340195781  |grad|_K:  1.158e-06  alpha:  1.226e-01  linmin:  6.485e-07  t[s]:  13510.19
	Linear fluid (dielectric constant: 78.4, screening length: 8.12261 Bohr) occupying 0.702423 of unit cell:	Completed after 7 iterations at t[s]:  13556.96
	Linear fluid (dielectric constant: 78.4, screening length: 8.12261 Bohr) occupying 0.702415 of unit cell:	Completed after 3 iterations at t[s]:  13595.47
	FillingsUpdate:  mu: -0.160200000  nElectrons: 232.602986  magneticMoment: [ Abs: 0.66796  Tot: -0.55745 ]
	SubspaceRotationAdjust: set factor to 0.129
ElecMinimize: Iter:  20  G: -368.466758225185856  |grad|_K:  1.132e-06  alpha:  1.521e-01  linmin: -3.058e-05  t[s]:  13645.16
	Linear fluid (dielectric constant: 78.4, screening length: 8.12261 Bohr) occupying 0.702376 of unit cell:	Completed after 8 iterations at t[s]:  13692.67
	Linear fluid (dielectric constant: 78.4, screening length: 8.12261 Bohr) occupying 0.702355 of unit cell:	Completed after 7 iterations at t[s]:  13733.59
	FillingsUpdate:  mu: -0.160200000  nElectrons: 232.622671  magneticMoment: [ Abs: 0.66391  Tot: -0.55511 ]
	SubspaceRotationAdjust: set factor to 0.151
ElecMinimize: Iter:  21  G: -368.466824502887732  |grad|_K:  1.261e-06  alpha:  2.348e-01  linmin:  3.469e-05  t[s]:  13783.53
	Linear fluid (dielectric constant: 78.4, screening length: 8.12261 Bohr) occupying 0.702293 of unit cell:	Completed after 13 iterations at t[s]:  13834.92
	Linear fluid (dielectric constant: 78.4, screening length: 8.12261 Bohr) occupying 0.702321 of unit cell:	Completed after 11 iterations at t[s]:  13878.55
	FillingsUpdate:  mu: -0.160200000  nElectrons: 232.649149  magneticMoment: [ Abs: 0.66797  Tot: -0.55993 ]
	SubspaceRotationAdjust: set factor to 0.166
ElecMinimize: Iter:  22  G: -368.466869526683183  |grad|_K:  9.202e-07  alpha:  1.273e-01  linmin: -3.123e-05  t[s]:  13928.59
	Linear fluid (dielectric constant: 78.4, screening length: 8.12261 Bohr) occupying 0.702302 of unit cell:	Completed after 10 iterations at t[s]:  13977.69
	Linear fluid (dielectric constant: 78.4, screening length: 8.12261 Bohr) occupying 0.702301 of unit cell:	Completed after 1 iterations at t[s]:  14016.34
	FillingsUpdate:  mu: -0.160200000  nElectrons: 232.666593  magneticMoment: [ Abs: 0.67011  Tot: -0.56214 ]
	SubspaceRotationAdjust: set factor to 0.154
ElecMinimize: Iter:  23  G: -368.466894804065191  |grad|_K:  9.101e-07  alpha:  1.345e-01  linmin: -6.717e-06  t[s]:  14066.25
	Linear fluid (dielectric constant: 78.4, screening length: 8.12261 Bohr) occupying 0.702274 of unit cell:	Completed after 7 iterations at t[s]:  14114.68
	Linear fluid (dielectric constant: 78.4, screening length: 8.12261 Bohr) occupying 0.702269 of unit cell:	Completed after 2 iterations at t[s]:  14153.18
	FillingsUpdate:  mu: -0.160200000  nElectrons: 232.676848  magneticMoment: [ Abs: 0.66202  Tot: -0.55337 ]
	SubspaceRotationAdjust: set factor to 0.107
ElecMinimize: Iter:  24  G: -368.466924253795980  |grad|_K:  8.596e-07  alpha:  1.615e-01  linmin: -2.268e-05  t[s]:  14203.00
	Linear fluid (dielectric constant: 78.4, screening length: 8.12261 Bohr) occupying 0.702231 of unit cell:	Completed after 8 iterations at t[s]:  14251.17
	Linear fluid (dielectric constant: 78.4, screening length: 8.12261 Bohr) occupying 0.702243 of unit cell:	Completed after 4 iterations at t[s]:  14290.47
	FillingsUpdate:  mu: -0.160200000  nElectrons: 232.675036  magneticMoment: [ Abs: 0.64998  Tot: -0.54049 ]
	SubspaceRotationAdjust: set factor to 0.163
ElecMinimize: Iter:  25  G: -368.466941909120067  |grad|_K:  5.600e-07  alpha:  1.084e-01  linmin:  1.471e-05  t[s]:  14340.27
	Linear fluid (dielectric constant: 78.4, screening length: 8.12261 Bohr) occupying 0.702232 of unit cell:	Completed after 6 iterations at t[s]:  14386.53
	Linear fluid (dielectric constant: 78.4, screening length: 8.12261 Bohr) occupying 0.702226 of unit cell:	Completed after 4 iterations at t[s]:  14426.58
	FillingsUpdate:  mu: -0.160200000  nElectrons: 232.671558  magneticMoment: [ Abs: 0.64025  Tot: -0.53034 ]
	SubspaceRotationAdjust: set factor to 0.152
ElecMinimize: Iter:  26  G: -368.466953153263603  |grad|_K:  5.650e-07  alpha:  1.647e-01  linmin:  7.663e-06  t[s]:  14476.64
	Linear fluid (dielectric constant: 78.4, screening length: 8.12261 Bohr) occupying 0.702213 of unit cell:	Completed after 3 iterations at t[s]:  14521.38
	Linear fluid (dielectric constant: 78.4, screening length: 8.12261 Bohr) occupying 0.702210 of unit cell:	Completed after 2 iterations at t[s]:  14559.57
	FillingsUpdate:  mu: -0.160200000  nElectrons: 232.673609  magneticMoment: [ Abs: 0.63397  Tot: -0.52399 ]
	SubspaceRotationAdjust: set factor to 0.129
ElecMinimize: Iter:  27  G: -368.466967230696469  |grad|_K:  5.068e-07  alpha:  2.017e-01  linmin:  7.308e-06  t[s]:  14609.52
	Linear fluid (dielectric constant: 78.4, screening length: 8.12261 Bohr) occupying 0.702205 of unit cell:	Completed after 7 iterations at t[s]:  14657.41
	Linear fluid (dielectric constant: 78.4, screening length: 8.12261 Bohr) occupying 0.702207 of unit cell:	Completed after 3 iterations at t[s]:  14695.88
	FillingsUpdate:  mu: -0.160200000  nElectrons: 232.679320  magneticMoment: [ Abs: 0.63477  Tot: -0.52518 ]
	SubspaceRotationAdjust: set factor to 0.147
ElecMinimize: Iter:  28  G: -368.466974777558505  |grad|_K:  3.699e-07  alpha:  1.332e-01  linmin:  2.262e-05  t[s]:  14745.81
	Linear fluid (dielectric constant: 78.4, screening length: 8.12261 Bohr) occupying 0.702206 of unit cell:	Completed after 4 iterations at t[s]:  14790.75
	Linear fluid (dielectric constant: 78.4, screening length: 8.12261 Bohr) occupying 0.702205 of unit cell:	Completed after 3 iterations at t[s]:  14829.16
	FillingsUpdate:  mu: -0.160200000  nElectrons: 232.683609  magneticMoment: [ Abs: 0.63521  Tot: -0.52647 ]
	SubspaceRotationAdjust: set factor to 0.124
ElecMinimize: Iter:  29  G: -368.466981583569634  |grad|_K:  4.304e-07  alpha:  2.313e-01  linmin:  2.317e-05  t[s]:  14879.08
	Linear fluid (dielectric constant: 78.4, screening length: 8.12261 Bohr) occupying 0.702199 of unit cell:	Completed after 3 iterations at t[s]:  14923.81
	Linear fluid (dielectric constant: 78.4, screening length: 8.12261 Bohr) occupying 0.702200 of unit cell:	Completed after 2 iterations at t[s]:  14961.47
	FillingsUpdate:  mu: -0.160200000  nElectrons: 232.681503  magneticMoment: [ Abs: 0.63078  Tot: -0.52311 ]
	SubspaceRotationAdjust: set factor to 0.136
ElecMinimize: Iter:  30  G: -368.466988772247419  |grad|_K:  3.259e-07  alpha:  1.794e-01  linmin:  9.576e-06  t[s]:  15011.29
	Linear fluid (dielectric constant: 78.4, screening length: 8.12261 Bohr) occupying 0.702196 of unit cell:	Completed after 7 iterations at t[s]:  15058.17
	Linear fluid (dielectric constant: 78.4, screening length: 8.12261 Bohr) occupying 0.702196 of unit cell:	Completed after 0 iterations at t[s]:  15094.49
	FillingsUpdate:  mu: -0.160200000  nElectrons: 232.676205  magneticMoment: [ Abs: 0.62537  Tot: -0.51852 ]
	SubspaceRotationAdjust: set factor to 0.134
ElecMinimize: Iter:  31  G: -368.466992974537447  |grad|_K:  3.022e-07  alpha:  1.814e-01  linmin: -5.448e-06  t[s]:  15144.18
	Linear fluid (dielectric constant: 78.4, screening length: 8.12261 Bohr) occupying 0.702197 of unit cell:	Completed after 6 iterations at t[s]:  15190.38
	Linear fluid (dielectric constant: 78.4, screening length: 8.12261 Bohr) occupying 0.702197 of unit cell:	Completed after 3 iterations at t[s]:  15228.86
	FillingsUpdate:  mu: -0.160200000  nElectrons: 232.670523  magneticMoment: [ Abs: 0.62021  Tot: -0.51477 ]
	SubspaceRotationAdjust: set factor to 0.123
ElecMinimize: Iter:  32  G: -368.466998057653541  |grad|_K:  3.066e-07  alpha:  2.501e-01  linmin: -3.808e-05  t[s]:  15278.83
	Linear fluid (dielectric constant: 78.4, screening length: 8.12261 Bohr) occupying 0.702205 of unit cell:	Completed after 3 iterations at t[s]:  15323.26
	Linear fluid (dielectric constant: 78.4, screening length: 8.12261 Bohr) occupying 0.702202 of unit cell:	Completed after 2 iterations at t[s]:  15360.94
	FillingsUpdate:  mu: -0.160200000  nElectrons: 232.669681  magneticMoment: [ Abs: 0.61953  Tot: -0.51529 ]
	SubspaceRotationAdjust: set factor to 0.176
ElecMinimize: Iter:  33  G: -368.467001424798070  |grad|_K:  2.150e-07  alpha:  1.588e-01  linmin:  3.632e-06  t[s]:  15410.75
	Linear fluid (dielectric constant: 78.4, screening length: 8.12261 Bohr) occupying 0.702208 of unit cell:	Completed after 3 iterations at t[s]:  15455.06
	Linear fluid (dielectric constant: 78.4, screening length: 8.12261 Bohr) occupying 0.702211 of unit cell:	Completed after 2 iterations at t[s]:  15492.72
	FillingsUpdate:  mu: -0.160200000  nElectrons: 232.669870  magneticMoment: [ Abs: 0.61999  Tot: -0.51697 ]
	SubspaceRotationAdjust: set factor to 0.169
ElecMinimize: Iter:  34  G: -368.467004013549854  |grad|_K:  2.649e-07  alpha:  2.579e-01  linmin:  8.471e-06  t[s]:  15542.65
	Linear fluid (dielectric constant: 78.4, screening length: 8.12261 Bohr) occupying 0.702225 of unit cell:	Completed after 3 iterations at t[s]:  15587.12
	Linear fluid (dielectric constant: 78.4, screening length: 8.12261 Bohr) occupying 0.702223 of unit cell:	Completed after 1 iterations at t[s]:  15624.40
	FillingsUpdate:  mu: -0.160200000  nElectrons: 232.666257  magneticMoment: [ Abs: 0.61764  Tot: -0.51624 ]
	SubspaceRotationAdjust: set factor to 0.228
ElecMinimize: Iter:  35  G: -368.467007346480784  |grad|_K:  2.014e-07  alpha:  2.189e-01  linmin:  1.393e-05  t[s]:  15674.81
	Linear fluid (dielectric constant: 78.4, screening length: 8.12261 Bohr) occupying 0.702229 of unit cell:	Completed after 4 iterations at t[s]:  15720.30
	Linear fluid (dielectric constant: 78.4, screening length: 8.12261 Bohr) occupying 0.702228 of unit cell:	Completed after 2 iterations at t[s]:  15759.33
	FillingsUpdate:  mu: -0.160200000  nElectrons: 232.663167  magneticMoment: [ Abs: 0.61547  Tot: -0.51481 ]
	SubspaceRotationAdjust: set factor to 0.202
ElecMinimize: Iter:  36  G: -368.467008759043438  |grad|_K:  1.861e-07  alpha:  1.644e-01  linmin:  2.404e-06  t[s]:  15809.25
	Linear fluid (dielectric constant: 78.4, screening length: 8.12261 Bohr) occupying 0.702233 of unit cell:	Completed after 2 iterations at t[s]:  15854.19
	Linear fluid (dielectric constant: 78.4, screening length: 8.12261 Bohr) occupying 0.702236 of unit cell:	Completed after 2 iterations at t[s]:  15891.93
	FillingsUpdate:  mu: -0.160200000  nElectrons: 232.662073  magneticMoment: [ Abs: 0.61527  Tot: -0.51589 ]
	SubspaceRotationAdjust: set factor to 0.271
ElecMinimize: Iter:  37  G: -368.467010785647858  |grad|_K:  1.625e-07  alpha:  2.675e-01  linmin: -6.383e-06  t[s]:  15941.86
	Linear fluid (dielectric constant: 78.4, screening length: 8.12261 Bohr) occupying 0.702243 of unit cell:	Completed after 3 iterations at t[s]:  15986.40
	Linear fluid (dielectric constant: 78.4, screening length: 8.12261 Bohr) occupying 0.702241 of unit cell:	Completed after 2 iterations at t[s]:  16024.97
	FillingsUpdate:  mu: -0.160200000  nElectrons: 232.662813  magneticMoment: [ Abs: 0.61629  Tot: -0.51761 ]
	SubspaceRotationAdjust: set factor to 0.226
ElecMinimize: Iter:  38  G: -368.467011839211466  |grad|_K:  1.674e-07  alpha:  1.820e-01  linmin:  2.188e-05  t[s]:  16074.92
	Linear fluid (dielectric constant: 78.4, screening length: 8.12261 Bohr) occupying 0.702242 of unit cell:	Completed after 2 iterations at t[s]:  16119.66
	Linear fluid (dielectric constant: 78.4, screening length: 8.12261 Bohr) occupying 0.702242 of unit cell:	Completed after 0 iterations at t[s]:  16156.03
	FillingsUpdate:  mu: -0.160200000  nElectrons: 232.660605  magneticMoment: [ Abs: 0.61482  Tot: -0.51684 ]
	SubspaceRotationAdjust: set factor to 0.309
ElecMinimize: Iter:  39  G: -368.467013031232625  |grad|_K:  1.061e-07  alpha:  1.986e-01  linmin: -3.019e-05  t[s]:  16205.71
	Linear fluid (dielectric constant: 78.4, screening length: 8.12261 Bohr) occupying 0.702241 of unit cell:	Completed after 3 iterations at t[s]:  16250.67
	Linear fluid (dielectric constant: 78.4, screening length: 8.12261 Bohr) occupying 0.702241 of unit cell:	Completed after 0 iterations at t[s]:  16286.38
	FillingsUpdate:  mu: -0.160200000  nElectrons: 232.659258  magneticMoment: [ Abs: 0.61361  Tot: -0.51589 ]
	SubspaceRotationAdjust: set factor to 0.243
ElecMinimize: Iter:  40  G: -368.467013527119491  |grad|_K:  1.341e-07  alpha:  1.942e-01  linmin: -6.866e-05  t[s]:  16336.05
	Linear fluid (dielectric constant: 78.4, screening length: 8.12261 Bohr) occupying 0.702240 of unit cell:	Completed after 2 iterations at t[s]:  16379.82
	Linear fluid (dielectric constant: 78.4, screening length: 8.12261 Bohr) occupying 0.702240 of unit cell:	Completed after 0 iterations at t[s]:  16415.63
	FillingsUpdate:  mu: -0.160200000  nElectrons: 232.660183  magneticMoment: [ Abs: 0.61396  Tot: -0.51666 ]
	SubspaceRotationAdjust: set factor to 0.203
ElecMinimize: Iter:  41  G: -368.467014186686242  |grad|_K:  9.575e-08  alpha:  1.534e-01  linmin:  5.287e-05  t[s]:  16465.81
	Linear fluid (dielectric constant: 78.4, screening length: 8.12261 Bohr) occupying 0.702239 of unit cell:	Completed after 1 iterations at t[s]:  16510.01
	Linear fluid (dielectric constant: 78.4, screening length: 8.12261 Bohr) occupying 0.702237 of unit cell:	Completed after 0 iterations at t[s]:  16546.32
	FillingsUpdate:  mu: -0.160200000  nElectrons: 232.660596  magneticMoment: [ Abs: 0.61345  Tot: -0.51648 ]
	SubspaceRotationAdjust: set factor to 0.225
ElecMinimize: Iter:  42  G: -368.467014739156070  |grad|_K:  7.109e-08  alpha:  2.654e-01  linmin: -1.513e-04  t[s]:  16597.08
	Linear fluid (dielectric constant: 78.4, screening length: 8.12261 Bohr) occupying 0.702235 of unit cell:	Completed after 2 iterations at t[s]:  16641.88
	Linear fluid (dielectric constant: 78.4, screening length: 8.12261 Bohr) occupying 0.702236 of unit cell:	Completed after 0 iterations at t[s]:  16679.22
	FillingsUpdate:  mu: -0.160200000  nElectrons: 232.661306  magneticMoment: [ Abs: 0.61334  Tot: -0.51654 ]
	SubspaceRotationAdjust: set factor to 0.259
ElecMinimize: Iter:  43  G: -368.467015015933498  |grad|_K:  6.557e-08  alpha:  2.239e-01  linmin: -1.389e-04  t[s]:  16728.92
	Linear fluid (dielectric constant: 78.4, screening length: 8.12261 Bohr) occupying 0.702234 of unit cell:	Completed after 2 iterations at t[s]:  16774.20
	Linear fluid (dielectric constant: 78.4, screening length: 8.12261 Bohr) occupying 0.702234 of unit cell:	Completed after 0 iterations at t[s]:  16810.61
	FillingsUpdate:  mu: -0.160200000  nElectrons: 232.662708  magneticMoment: [ Abs: 0.61391  Tot: -0.51724 ]
	SubspaceRotationAdjust: set factor to 0.2
ElecMinimize: Iter:  44  G: -368.467015205029895  |grad|_K:  6.999e-08  alpha:  1.755e-01  linmin:  1.461e-04  t[s]:  16860.71
	Linear fluid (dielectric constant: 78.4, screening length: 8.12261 Bohr) occupying 0.702232 of unit cell:	Completed after 1 iterations at t[s]:  16904.12
	Linear fluid (dielectric constant: 78.4, screening length: 8.12261 Bohr) occupying 0.702232 of unit cell:	Completed after 0 iterations at t[s]:  16939.91
	FillingsUpdate:  mu: -0.160200000  nElectrons: 232.663167  magneticMoment: [ Abs: 0.61359  Tot: -0.51702 ]
	SubspaceRotationAdjust: set factor to 0.271
ElecMinimize: Iter:  45  G: -368.467015346796700  |grad|_K:  5.103e-08  alpha:  1.586e-01  linmin: -4.561e-05  t[s]:  16989.52
	Linear fluid (dielectric constant: 78.4, screening length: 8.12261 Bohr) occupying 0.702230 of unit cell:	Completed after 0 iterations at t[s]:  17031.37
	Linear fluid (dielectric constant: 78.4, screening length: 8.12261 Bohr) occupying 0.702228 of unit cell:	Completed after 1 iterations at t[s]:  17068.25
	FillingsUpdate:  mu: -0.160200000  nElectrons: 232.663314  magneticMoment: [ Abs: 0.61286  Tot: -0.51638 ]
	SubspaceRotationAdjust: set factor to 0.259
ElecMinimize: Iter:  46  G: -368.467015476979952  |grad|_K:  5.309e-08  alpha:  3.606e-01  linmin:  3.067e-04  t[s]:  17118.32
	Linear fluid (dielectric constant: 78.4, screening length: 8.12261 Bohr) occupying 0.702225 of unit cell:	Completed after 2 iterations at t[s]:  17162.40
	Linear fluid (dielectric constant: 78.4, screening length: 8.12261 Bohr) occupying 0.702227 of unit cell:	Completed after 2 iterations at t[s]:  17200.03
	FillingsUpdate:  mu: -0.160200000  nElectrons: 232.663779  magneticMoment: [ Abs: 0.61302  Tot: -0.51658 ]
	SubspaceRotationAdjust: set factor to 0.262
ElecMinimize: Iter:  47  G: -368.467015515687876  |grad|_K:  4.160e-08  alpha:  9.958e-02  linmin:  7.381e-05  t[s]:  17250.06
	Linear fluid (dielectric constant: 78.4, screening length: 8.12261 Bohr) occupying 0.702226 of unit cell:	Completed after 0 iterations at t[s]:  17293.92
ElecMinimize: 	Predicted alpha/alphaT>3.000000, increasing alphaT to 2.987502e-01.
	Linear fluid (dielectric constant: 78.4, screening length: 8.12261 Bohr) occupying 0.702225 of unit cell:	Completed after 1 iterations at t[s]:  17331.89
	Linear fluid (dielectric constant: 78.4, screening length: 8.12261 Bohr) occupying 0.702225 of unit cell:	Completed after 0 iterations at t[s]:  17369.06
	FillingsUpdate:  mu: -0.160200000  nElectrons: 232.664283  magneticMoment: [ Abs: 0.61318  Tot: -0.51678 ]
	SubspaceRotationAdjust: set factor to 0.303
ElecMinimize: Iter:  48  G: -368.467015595788098  |grad|_K:  3.900e-08  alpha:  2.426e-01  linmin: -1.834e-05  t[s]:  17418.69
ElecMinimize: Converged (|Delta G|<1.000000e-07 for 2 iters).
Setting wave functions to eigenvectors of Hamiltonian
Converging empty states (this may take a while): |deigs|: 3.527e-03
Single-point solvation energy estimate, DeltaG = -0.089443746231098

Computing DFT-D3 correction:
# coordination-number C 3.301 3.323 3.336 3.332 3.313 3.291 3.325 3.551 3.329 3.313 3.303 3.341 3.301 3.301 3.323 3.713 3.268 3.302 3.320 3.334 3.326 3.304 3.302 3.330 3.335 3.319 3.301 3.270 3.545 3.322 3.302 3.306 3.317 3.301 3.314 3.328 3.708 3.332 3.292 3.314 3.333 3.333 3.322 3.303 2.991
# coordination-number N 3.172 3.182 3.177 3.184
# coordination-number Ti 6.810
# coordination-number O 2.093 1.174 2.947
# coordination-number H 0.988 0.988 1.040 1.003
# diagonal-C6 C 24.27 24.05 23.91 23.95 24.16 24.36 24.03 20.91 23.99 24.15 24.25 23.86 24.27 24.27 24.05 19.21 24.57 24.26 24.08 23.93 24.02 24.24 24.26 23.97 23.91 24.09 24.28 24.55 20.99 24.06 24.26 24.22 24.11 24.27 24.15 24.00 19.25 23.96 24.36 24.15 23.95 23.94 24.06 24.26 25.69
# diagonal-C6 N 15.60 15.60 15.60 15.60
# diagonal-C6 Ti 321.59
# diagonal-C6 O 10.39 12.63 10.37
# diagonal-C6 H 3.10 3.10 3.07 3.09
EvdW_6 =   -0.042950
EvdW_8 =   -0.033186

# Ionic positions in cartesian coordinates:
ion C   0.000858000000000   0.088004000000000   0.037676000000000 1
ion C  21.042811000000004   4.042559000000001   0.062505000000000 1
ion C  18.694477999999997   8.046589000000003   0.000216000000000 1
ion C  -7.046500000000001  12.046085000000001  43.240135000000009 1
ion C  -9.371743000000002  16.058293000000003   0.010598000000000 1
ion C   4.683095000000001   0.183093000000000   0.055844000000000 1
ion C   2.290652000000001   4.206701000000001   0.190674000000000 1
ion C  -0.129709000000001   8.023835999999999   0.205165000000000 1
ion C  -2.428147000000001  12.029620000000001   0.079029000000000 1
ion C  -4.721459000000002  16.058691000000003   0.029501000000000 1
ion C   9.378534999999999   0.069208000000000   0.005667000000000 1
ion C   7.082758000000002   4.165391000000001   0.030193000000000 1
ion C  -0.022498000000001  15.952888000000002   0.094472000000000 1
ion C   2.343153000000001  19.928317000000003   0.025348000000000 1
ion C  11.754956000000002   4.028046000000001  43.229927000000011 1
ion C   9.463841000000002   8.018753000000002  43.252117000000005 1
ion C   4.668796000000000  15.836446000000002   0.129250000000000 1
ion C   6.994999999999996  19.938372000000008   0.024959000000000 1
ion C  16.397690000000004   4.016847000000000  43.247748000000009 1
ion C  14.089431000000001   8.040320000000003  43.232306000000008 1
ion C  11.773346999999998  12.043536000000000   0.007873000000000 1
ion C   9.376474999999999  15.990309999999999   0.009819000000000 1
ion C  -0.015408000000000   2.774095000000000   0.089757000000000 1
ion C  -2.427988000000001   6.697235000000002   0.067869000000000 1
ion C  -4.742627000000001  10.696323000000000   0.003590000000000 1
ion C  -7.047232000000001  14.721395000000003   0.006921000000000 1
ion C  -9.375309000000000  18.747187000000004   0.038758000000000 1
ion C   4.679461000000001   2.900198000000001   0.112120000000000 1
ion C  -0.127902000000002  10.705432000000004   0.220910000000000 1
ion C  -2.400542000000001  14.702278000000003   0.073492000000000 1
ion C  -4.721295000000001  18.744116000000005   0.026430000000000 1
ion C   9.390866000000003   2.749775000000001  43.238015000000004 1
ion C   2.285678999999998  14.523485000000004   0.211610000000000 1
ion C  -0.011098000000000  18.639380000000003   0.029847000000000 1
ion C  14.076608000000002   2.675045000000000  43.245023000000010 1
ion C  11.781317000000001   6.702698000000001  43.239529000000005 1
ion C   9.459468999999999  10.720055000000002   0.027684000000000 1
ion C   7.068716999999999  14.571788000000003   0.076693000000000 1
ion C   4.668956999999999  18.555029000000001   0.053854000000000 1
ion C  18.724543000000004   2.682584000000001   0.019206000000000 1
ion C  16.393877000000000   6.692892000000001  43.231657000000006 1
ion C  14.086265000000001  10.712356000000002  43.238232000000011 1
ion C  11.744702999999999  14.718944000000002   0.005580000000000 1
ion C   9.361513000000000  18.671913000000000   0.016135000000000 1
ion C   4.372988000000001   9.150167000000003   5.574138000000000 1
ion N   2.170125000000001  11.917057000000000   0.428800000000000 1
ion N   7.176043000000002  11.978837000000004   0.139199000000000 1
ion N   2.161992000000000   6.808653000000001   0.376936000000000 1
ion N   7.191344000000001   6.750906000000001   0.036552000000000 1
ion Ti   4.846389000000002   9.332503000000003   1.575827000000000 1
ion O   3.908969000000000  10.924121000000003   7.505576000000000 1
ion O   4.875666000000001   6.992549000000001   6.242881000000001 1
ion O   8.015041999999998  11.942812000000004   9.811051000000003 1
ion H   8.016695000000000  13.650706000000003  10.615835000000002 1
ion H   8.487213000000002  10.661970000000002  11.112806000000003 1
ion H   6.243020000000001  11.538025000000001   9.033346000000002 1
ion H   3.283167000000000  12.534014000000003   6.779043000000001 1

# Forces in Cartesian coordinates:
force C  -0.000052427940347  -0.000057862667274   0.000021465168439 1
force C  -0.000033578821580  -0.000044523899047  -0.000010033013656 1
force C  -0.000029841195792  -0.000050544132634   0.000010595704716 1
force C  -0.000026369171021  -0.000075476503552   0.000004380985580 1
force C  -0.000057626755590  -0.000059044668056   0.000019627103687 1
force C  -0.000033894078318  -0.000057630657318   0.000018730014114 1
force C  -0.000040125729558  -0.000079494144377  -0.000091752675124 1
force C  -0.000022262547205  -0.000044802651764  -0.000170143132440 1
force C  -0.000039741779912  -0.000039071928058  -0.000043778134285 1
force C  -0.000018308846185  -0.000049330978172   0.000005425262103 1
force C  -0.000015819030481  -0.000057217074405   0.000015330664228 1
force C  -0.000015785405615   0.000052013731896  -0.000001560753518 1
force C  -0.000017968660606  -0.000041795481370  -0.000042057914317 1
force C  -0.000024240043035  -0.000059054369275  -0.000001364427315 1
force C  -0.000004302087627  -0.000049488233601  -0.000025517726002 1
force C   0.000004796362156  -0.000053723074720  -0.000091920137174 1
force C  -0.000020300327049  -0.000101203434739  -0.000005593868910 1
force C  -0.000040748289834  -0.000075611716159   0.000020972023783 1
force C  -0.000035234868551  -0.000058186056598  -0.000005255990863 1
force C  -0.000019714110607  -0.000059759544724  -0.000031138862554 1
force C  -0.000037224302722  -0.000049832382907  -0.000034595124016 1
force C  -0.000071716554165  -0.000092538463907   0.000059188352878 1
force C  -0.000012479413879  -0.000094631746496  -0.000020149998358 1
force C  -0.000039970148766  -0.000072565563445  -0.000025840395726 1
force C  -0.000023572557218  -0.000051440353768   0.000016709526710 1
force C  -0.000042944936235  -0.000050341638013   0.000008353802219 1
force C  -0.000028202829745  -0.000073957356702   0.000014813138718 1
force C  -0.000009721604994  -0.000038952612987  -0.000005577041319 1
force C  -0.000005659470186  -0.000068474374848  -0.000199835671128 1
force C  -0.000036916764348  -0.000072355820913  -0.000020825233385 1
force C  -0.000047238012441  -0.000048699401267   0.000017377415902 1
force C  -0.000028567943394  -0.000060835866521   0.000015731248991 1
force C  -0.000025193906680  -0.000064403837662  -0.000112871868540 1
force C  -0.000025638943473  -0.000078355907289   0.000002365088044 1
force C  -0.000020965818107  -0.000075526684891  -0.000022620726763 1
force C  -0.000002393305214  -0.000086697914776  -0.000084684497875 1
force C  -0.000012892879792  -0.000126989721308  -0.000012287362236 1
force C  -0.000065628006101  -0.000221603944580   0.000090509725121 1
force C  -0.000036976856648  -0.000076716355648   0.000005851811251 1
force C  -0.000009471608127  -0.000078698814340   0.000004373324928 1
force C  -0.000021845036652  -0.000051284465565  -0.000000038488386 1
force C  -0.000016434646699  -0.000060120904411  -0.000024770210518 1
force C  -0.000003707043537  -0.000078407122520   0.000028131365755 1
force C  -0.000025218207101  -0.000088028887056   0.000029249928629 1
force C  -0.000655397146365   0.003565196613186   0.000384778010306 1
force N   0.000014206352102  -0.000027812654535  -0.000203118390865 1
force N  -0.000153157709635  -0.000278100069333   0.000260722330402 1
force N  -0.000037805184689  -0.000113504425244  -0.000212462282709 1
force N  -0.000101914267306   0.000075393746960  -0.000057349464198 1
force Ti  -0.000410547932753  -0.000168054129881   0.000131943571540 1
force O  -0.000135920561328  -0.000888234756346   0.000034872914118 1
force O   0.001512819764860   0.002577278444747  -0.003105833808006 1
force O  -0.000158231848883  -0.000383227493237   0.000128677370268 1
force H  -0.000219512259762   0.000177898389180  -0.000077178161531 1
force H  -0.000156911302322  -0.000306083413698   0.000732293273208 1
force H   0.001666795280954  -0.000430586166188   0.001828957531725 1
force H  -0.000487417657920  -0.000916142801928   0.000462084243250 1

# Energy components:
   A_diel =       -0.0145789779430280
   Eewald =     1661.9252014440164658
       EH =     1979.8624180490501203
     Eloc =    -4198.2633554553958675
      Enl =       54.7729079104482253
     EvdW =       -0.0761360139983232
      Exc =     -113.5027772233295735
 Exc_core =        3.3745796760676612
       KE =      206.1672431511574644
  MuShift =        0.0153331241528954
-------------------------------------
     Etot =     -405.7391643157742465
       TS =        0.0006693372547119
-------------------------------------
        F =     -405.7398336530289384
      muN =      -37.2728180572408334
-------------------------------------
        G =     -368.4670155957880979


Dumping 'jdft.fillings' ... done
Dumping 'jdft.wfns' ... done
Dumping 'jdft.fluidState' ... done
Dumping 'jdft.ionpos' ... done
Dumping 'jdft.lattice' ... done
Dumping 'jdft.eigenvals' ... done
Dumping 'jdft.eigStats' ... 
	eMin: -2.295723 at state 9 ( [ +0.000000 +0.000000 +0.000000 ] spin -1 )
	HOMO: -0.160560 at state 16 ( [ -0.333333 +0.333333 +0.000000 ] spin -1 )
	mu  : -0.160200
	LUMO: -0.159907 at state 15 ( [ -0.333333 +0.000000 +0.000000 ] spin -1 )
	eMax: +0.017266 at state 4 ( [ +0.333333 +0.333333 +0.000000 ] spin 1 )
	HOMO-LUMO gap: +0.000653
	Optical gap  : +0.008891 at state 17 ( [ -0.333333 -0.333333 +0.000000 ] spin -1 )
Dumping 'jdft.Ecomponents' ... done
IonicMinimize: Iter:   0  G: -368.467015595788098  |grad|_K:  4.963e-04  t[s]:  18454.65
IonicMinimize: None of the convergence criteria satisfied after 0 iterations.

#--- Lowdin population analysis ---
# oxidation-state C +0.051 +0.061 +0.049 +0.056 +0.047 +0.053 +0.174 +0.145 +0.040 +0.047 +0.050 +0.179 +0.038 +0.054 +0.063 +0.126 +0.006 +0.053 +0.047 +0.051 +0.040 +0.036 +0.039 +0.039 +0.048 +0.045 +0.054 +0.005 +0.143 +0.059 +0.053 +0.036 +0.170 +0.050 +0.046 +0.040 +0.123 +0.175 +0.052 +0.046 +0.055 +0.050 +0.061 +0.049 +0.177
# magnetic-moments C -0.000 -0.008 -0.001 -0.001 +0.000 -0.002 -0.007 -0.009 +0.001 +0.001 +0.000 -0.003 +0.002 +0.001 -0.003 -0.003 +0.004 -0.003 -0.002 +0.002 -0.000 -0.004 +0.001 +0.001 -0.001 -0.003 +0.001 +0.003 -0.007 -0.008 -0.004 -0.006 -0.008 -0.000 -0.000 -0.001 -0.007 -0.005 -0.002 +0.001 -0.001 +0.001 -0.005 -0.001 -0.015
# oxidation-state N -0.307 -0.312 -0.301 -0.311
# magnetic-moments N +0.007 +0.000 +0.008 -0.004
# oxidation-state Ti +1.418
# magnetic-moments Ti -0.389
# oxidation-state O -0.436 -0.372 -0.539
# magnetic-moments O -0.002 -0.018 -0.000
# oxidation-state H +0.548 +0.546 +0.410 +0.478
# magnetic-moments H +0.000 +0.000 +0.000 -0.000


Dumping 'jdft.n_up' ... done
Dumping 'jdft.n_dn' ... done
Dumping 'jdft.tau_up' ... done
Dumping 'jdft.tau_dn' ... done
Dumping 'jdft.eigenvals' ... done
Dumping 'jdft.eigStats' ... 
	eMin: -2.295723 at state 9 ( [ +0.000000 +0.000000 +0.000000 ] spin -1 )
	HOMO: -0.160560 at state 16 ( [ -0.333333 +0.333333 +0.000000 ] spin -1 )
	mu  : -0.160200
	LUMO: -0.159907 at state 15 ( [ -0.333333 +0.000000 +0.000000 ] spin -1 )
	eMax: +0.017266 at state 4 ( [ +0.333333 +0.333333 +0.000000 ] spin 1 )
	HOMO-LUMO gap: +0.000653
	Optical gap  : +0.008891 at state 17 ( [ -0.333333 -0.333333 +0.000000 ] spin -1 )
Dumping 'jdft.kPts' ... done
Dumping 'jdft.dosUp' ... done.
Dumping 'jdft.dosDn' ... done.
End date and time: Tue Mar 14 18:43:26 2023  (Duration: 0-5:08:56.58)
Done!

PROFILER:             augmentDensityGrid     0.823157 +/-     1.121980 s, 1360 calls,   1119.493633 s total
PROFILER:         augmentDensityGridGrad     0.433655 +/-     0.465371 s,  690 calls,    299.222227 s total
PROFILER:        augmentDensitySpherical     0.000239 +/-     0.000321 s, 1360 calls,      0.324565 s total
PROFILER:    augmentDensitySphericalGrad     0.000207 +/-     0.000287 s, 1040 calls,      0.215307 s total
PROFILER:                 augmentOverlap     1.318790 +/-     1.964306 s, 3020 calls,   3982.744618 s total
PROFILER:        ColumnBundle::randomize     0.005091 +/-     0.000000 s,    1 calls,      0.005091 s total
PROFILER:                     diagouterI    15.171996 +/-     2.804258 s,  275 calls,   4172.299012 s total
PROFILER:              EdensityAndVscloc     4.722921 +/-     5.674791 s,  273 calls,   1289.357394 s total
PROFILER:                     EnlAndGrad     0.000826 +/-     0.001366 s, 1535 calls,      1.268385 s total
PROFILER:            ExCorrCommunication     0.083917 +/-     0.156503 s, 1651 calls,    138.547059 s total
PROFILER:               ExCorrFunctional     0.023858 +/-     0.002282 s,  277 calls,      6.608544 s total
PROFILER:                    ExCorrTotal     0.763098 +/-     0.297575 s,  277 calls,    211.378089 s total
PROFILER:                   Idag_DiagV_I    21.966246 +/-    12.944399 s,  207 calls,   4547.012883 s total
PROFILER:                    initWeights     1.845458 +/-     0.000000 s,    1 calls,      1.845458 s total
PROFILER:                    inv(matrix)     0.001674 +/-     0.000040 s,  231 calls,      0.386775 s total
PROFILER:            matrix::diagonalize     0.006705 +/-     0.003704 s,  475 calls,      3.185048 s total
PROFILER:                    matrix::set     0.000002 +/-     0.000002 s, 29981 calls,      0.053249 s total
PROFILER:            orthoMatrix(matrix)     0.000949 +/-     0.000422 s,  301 calls,      0.285765 s total
PROFILER:     RadialFunctionR::transform     0.005978 +/-     0.032536 s,  151 calls,      0.902645 s total
PROFILER:                    reduceKmesh     0.000000 +/-     0.000000 s,    1 calls,      0.000000 s total
PROFILER:   VanDerWaalsD3::energyAndGrad     0.036579 +/-     0.000938 s,    3 calls,      0.109738 s total
PROFILER:               WavefunctionDrag    15.635206 +/-     0.000000 s,    1 calls,     15.635206 s total
PROFILER:                            Y*M     0.588824 +/-     0.772554 s, 5302 calls,   3121.942289 s total
PROFILER:                          Y1^Y2     0.586650 +/-     0.793555 s, 3803 calls,   2231.030852 s total

MEMUSAGE:                   ColumnBundle     1.372431 GB
MEMUSAGE:        complexScalarFieldTilde     0.024719 GB
MEMUSAGE:                    IndexArrays     0.023178 GB
MEMUSAGE:                         matrix     0.020874 GB
MEMUSAGE:                           misc     0.051230 GB
MEMUSAGE:                    ScalarField     0.358429 GB
MEMUSAGE:               ScalarFieldTilde     0.262436 GB
MEMUSAGE:                          Total     1.652823 GB
