
*************** JDFTx 1.7.0 (git hash 5f12716a) ***************

Start date and time: Wed Nov  9 18:58:38 2022
Executable /home/nisi6161/jdftx_alpine/build/jdftx with command-line: -i in
Running on hosts (process indices):  c3cpu-c11-u7-3.rc.int.colorado.edu (0-17)
Divided in process groups (process indices):  0 (0)  1 (1)  2 (2)  3 (3)  4 (4)  5 (5)  6 (6)  7 (7)  8 (8)  9 (9)  10 (10)  11 (11)  12 (12)  13 (13)  14 (14)  15 (15)  16 (16)  17 (17)
Resource initialization completed at t[s]:      0.00
Run totals: 18 processes, 48 threads, 0 GPUs


Input parsed successfully to the following command list (including defaults):

basis kpoint-dependent
converge-empty-states yes
coords-type Cartesian
core-overlap-check none
coulomb-interaction Periodic
davidson-band-ratio 1.1
density-of-states Etol 1.000000e-06 Esigma 1.000000e-03 \
		Complete \
	Total \
	OrthoOrbital C 1   s \
	OrthoOrbital C 1   p \
	OrthoOrbital C 1   px \
	OrthoOrbital C 1   py \
	OrthoOrbital C 1   pz \
	OrthoOrbital C 2   s \
	OrthoOrbital C 2   p \
	OrthoOrbital C 2   px \
	OrthoOrbital C 2   py \
	OrthoOrbital C 2   pz \
	OrthoOrbital C 3   s \
	OrthoOrbital C 3   p \
	OrthoOrbital C 3   px \
	OrthoOrbital C 3   py \
	OrthoOrbital C 3   pz \
	OrthoOrbital C 4   s \
	OrthoOrbital C 4   p \
	OrthoOrbital C 4   px \
	OrthoOrbital C 4   py \
	OrthoOrbital C 4   pz \
	OrthoOrbital C 5   s \
	OrthoOrbital C 5   p \
	OrthoOrbital C 5   px \
	OrthoOrbital C 5   py \
	OrthoOrbital C 5   pz \
	OrthoOrbital C 6   s \
	OrthoOrbital C 6   p \
	OrthoOrbital C 6   px \
	OrthoOrbital C 6   py \
	OrthoOrbital C 6   pz \
	OrthoOrbital C 7   s \
	OrthoOrbital C 7   p \
	OrthoOrbital C 7   px \
	OrthoOrbital C 7   py \
	OrthoOrbital C 7   pz \
	OrthoOrbital C 8   s \
	OrthoOrbital C 8   p \
	OrthoOrbital C 8   px \
	OrthoOrbital C 8   py \
	OrthoOrbital C 8   pz \
	OrthoOrbital C 9   s \
	OrthoOrbital C 9   p \
	OrthoOrbital C 9   px \
	OrthoOrbital C 9   py \
	OrthoOrbital C 9   pz \
	OrthoOrbital C 10   s \
	OrthoOrbital C 10   p \
	OrthoOrbital C 10   px \
	OrthoOrbital C 10   py \
	OrthoOrbital C 10   pz \
	OrthoOrbital C 11   s \
	OrthoOrbital C 11   p \
	OrthoOrbital C 11   px \
	OrthoOrbital C 11   py \
	OrthoOrbital C 11   pz \
	OrthoOrbital C 12   s \
	OrthoOrbital C 12   p \
	OrthoOrbital C 12   px \
	OrthoOrbital C 12   py \
	OrthoOrbital C 12   pz \
	OrthoOrbital C 13   s \
	OrthoOrbital C 13   p \
	OrthoOrbital C 13   px \
	OrthoOrbital C 13   py \
	OrthoOrbital C 13   pz \
	OrthoOrbital C 14   s \
	OrthoOrbital C 14   p \
	OrthoOrbital C 14   px \
	OrthoOrbital C 14   py \
	OrthoOrbital C 14   pz \
	OrthoOrbital C 15   s \
	OrthoOrbital C 15   p \
	OrthoOrbital C 15   px \
	OrthoOrbital C 15   py \
	OrthoOrbital C 15   pz \
	OrthoOrbital C 16   s \
	OrthoOrbital C 16   p \
	OrthoOrbital C 16   px \
	OrthoOrbital C 16   py \
	OrthoOrbital C 16   pz \
	OrthoOrbital C 17   s \
	OrthoOrbital C 17   p \
	OrthoOrbital C 17   px \
	OrthoOrbital C 17   py \
	OrthoOrbital C 17   pz \
	OrthoOrbital C 18   s \
	OrthoOrbital C 18   p \
	OrthoOrbital C 18   px \
	OrthoOrbital C 18   py \
	OrthoOrbital C 18   pz \
	OrthoOrbital C 19   s \
	OrthoOrbital C 19   p \
	OrthoOrbital C 19   px \
	OrthoOrbital C 19   py \
	OrthoOrbital C 19   pz \
	OrthoOrbital C 20   s \
	OrthoOrbital C 20   p \
	OrthoOrbital C 20   px \
	OrthoOrbital C 20   py \
	OrthoOrbital C 20   pz \
	OrthoOrbital C 21   s \
	OrthoOrbital C 21   p \
	OrthoOrbital C 21   px \
	OrthoOrbital C 21   py \
	OrthoOrbital C 21   pz \
	OrthoOrbital C 22   s \
	OrthoOrbital C 22   p \
	OrthoOrbital C 22   px \
	OrthoOrbital C 22   py \
	OrthoOrbital C 22   pz \
	OrthoOrbital C 23   s \
	OrthoOrbital C 23   p \
	OrthoOrbital C 23   px \
	OrthoOrbital C 23   py \
	OrthoOrbital C 23   pz \
	OrthoOrbital C 24   s \
	OrthoOrbital C 24   p \
	OrthoOrbital C 24   px \
	OrthoOrbital C 24   py \
	OrthoOrbital C 24   pz \
	OrthoOrbital C 25   s \
	OrthoOrbital C 25   p \
	OrthoOrbital C 25   px \
	OrthoOrbital C 25   py \
	OrthoOrbital C 25   pz \
	OrthoOrbital C 26   s \
	OrthoOrbital C 26   p \
	OrthoOrbital C 26   px \
	OrthoOrbital C 26   py \
	OrthoOrbital C 26   pz \
	OrthoOrbital C 27   s \
	OrthoOrbital C 27   p \
	OrthoOrbital C 27   px \
	OrthoOrbital C 27   py \
	OrthoOrbital C 27   pz \
	OrthoOrbital C 28   s \
	OrthoOrbital C 28   p \
	OrthoOrbital C 28   px \
	OrthoOrbital C 28   py \
	OrthoOrbital C 28   pz \
	OrthoOrbital C 29   s \
	OrthoOrbital C 29   p \
	OrthoOrbital C 29   px \
	OrthoOrbital C 29   py \
	OrthoOrbital C 29   pz \
	OrthoOrbital C 30   s \
	OrthoOrbital C 30   p \
	OrthoOrbital C 30   px \
	OrthoOrbital C 30   py \
	OrthoOrbital C 30   pz \
	OrthoOrbital C 31   s \
	OrthoOrbital C 31   p \
	OrthoOrbital C 31   px \
	OrthoOrbital C 31   py \
	OrthoOrbital C 31   pz \
	OrthoOrbital C 32   s \
	OrthoOrbital C 32   p \
	OrthoOrbital C 32   px \
	OrthoOrbital C 32   py \
	OrthoOrbital C 32   pz \
	OrthoOrbital C 33   s \
	OrthoOrbital C 33   p \
	OrthoOrbital C 33   px \
	OrthoOrbital C 33   py \
	OrthoOrbital C 33   pz \
	OrthoOrbital C 34   s \
	OrthoOrbital C 34   p \
	OrthoOrbital C 34   px \
	OrthoOrbital C 34   py \
	OrthoOrbital C 34   pz \
	OrthoOrbital C 35   s \
	OrthoOrbital C 35   p \
	OrthoOrbital C 35   px \
	OrthoOrbital C 35   py \
	OrthoOrbital C 35   pz \
	OrthoOrbital C 36   s \
	OrthoOrbital C 36   p \
	OrthoOrbital C 36   px \
	OrthoOrbital C 36   py \
	OrthoOrbital C 36   pz \
	OrthoOrbital C 37   s \
	OrthoOrbital C 37   p \
	OrthoOrbital C 37   px \
	OrthoOrbital C 37   py \
	OrthoOrbital C 37   pz \
	OrthoOrbital C 38   s \
	OrthoOrbital C 38   p \
	OrthoOrbital C 38   px \
	OrthoOrbital C 38   py \
	OrthoOrbital C 38   pz \
	OrthoOrbital C 39   s \
	OrthoOrbital C 39   p \
	OrthoOrbital C 39   px \
	OrthoOrbital C 39   py \
	OrthoOrbital C 39   pz \
	OrthoOrbital C 40   s \
	OrthoOrbital C 40   p \
	OrthoOrbital C 40   px \
	OrthoOrbital C 40   py \
	OrthoOrbital C 40   pz \
	OrthoOrbital C 41   s \
	OrthoOrbital C 41   p \
	OrthoOrbital C 41   px \
	OrthoOrbital C 41   py \
	OrthoOrbital C 41   pz \
	OrthoOrbital C 42   s \
	OrthoOrbital C 42   p \
	OrthoOrbital C 42   px \
	OrthoOrbital C 42   py \
	OrthoOrbital C 42   pz \
	OrthoOrbital C 43   s \
	OrthoOrbital C 43   p \
	OrthoOrbital C 43   px \
	OrthoOrbital C 43   py \
	OrthoOrbital C 43   pz \
	OrthoOrbital C 44   s \
	OrthoOrbital C 44   p \
	OrthoOrbital C 44   px \
	OrthoOrbital C 44   py \
	OrthoOrbital C 44   pz \
	OrthoOrbital C 45   s \
	OrthoOrbital C 45   p \
	OrthoOrbital C 45   px \
	OrthoOrbital C 45   py \
	OrthoOrbital C 45   pz \
	OrthoOrbital N 1   s \
	OrthoOrbital N 1   p \
	OrthoOrbital N 1   px \
	OrthoOrbital N 1   py \
	OrthoOrbital N 1   pz \
	OrthoOrbital N 2   s \
	OrthoOrbital N 2   p \
	OrthoOrbital N 2   px \
	OrthoOrbital N 2   py \
	OrthoOrbital N 2   pz \
	OrthoOrbital N 3   s \
	OrthoOrbital N 3   p \
	OrthoOrbital N 3   px \
	OrthoOrbital N 3   py \
	OrthoOrbital N 3   pz \
	OrthoOrbital N 4   s \
	OrthoOrbital N 4   p \
	OrthoOrbital N 4   px \
	OrthoOrbital N 4   py \
	OrthoOrbital N 4   pz \
	OrthoOrbital Ti 1   s \
	OrthoOrbital Ti 1   p \
	OrthoOrbital Ti 1   px \
	OrthoOrbital Ti 1   py \
	OrthoOrbital Ti 1   pz \
	OrthoOrbital Ti 1   d \
	OrthoOrbital Ti 1   dxy \
	OrthoOrbital Ti 1   dyz \
	OrthoOrbital Ti 1   dz2 \
	OrthoOrbital Ti 1   dxz \
	OrthoOrbital Ti 1   dx2-y2 \
	OrthoOrbital O 1   s \
	OrthoOrbital O 1   p \
	OrthoOrbital O 1   px \
	OrthoOrbital O 1   py \
	OrthoOrbital O 1   pz \
	OrthoOrbital O 2   s \
	OrthoOrbital O 2   p \
	OrthoOrbital O 2   px \
	OrthoOrbital O 2   py \
	OrthoOrbital O 2   pz \
	OrthoOrbital H 1   s
dump End ElecDensity KEdensity BandEigs EigStats RhoAtom DOS Kpoints
dump Ionic State IonicPositions Lattice EigStats Ecomponents
dump 
dump 
dump 
dump 
dump 
dump 
dump 
dump 
dump-name jdft.$VAR
elec-cutoff 20
elec-eigen-algo Davidson
elec-ex-corr gga-PBE
elec-initial-magnetization 0.000000 no
elec-n-bands 135
elec-smearing Fermi 0.001
electronic-minimize  \
	dirUpdateScheme      FletcherReeves \
	linminMethod         DirUpdateRecommended \
	nIterations          100 \
	history              15 \
	knormThreshold       0 \
	energyDiffThreshold  1e-07 \
	nEnergyDiff          2 \
	alphaTstart          1 \
	alphaTmin            1e-10 \
	updateTestStepSize   yes \
	alphaTreduceFactor   0.1 \
	alphaTincreaseFactor 3 \
	nAlphaAdjustMax      3 \
	wolfeEnergy          0.0001 \
	wolfeGradient        0.9 \
	fdTest               no
exchange-regularization WignerSeitzTruncated
fluid LinearPCM 298.000000 1.013250
fluid-anion F- 0.5 MeanFieldLJ \
	epsBulk 1 \
	pMol 0 \
	epsInf 1 \
	Pvap 0 \
	sigmaBulk 0 \
	Rvdw 2.24877 \
	Res 0 \
	tauNuc 343133
fluid-cation Na+ 0.5 MeanFieldLJ \
	epsBulk 1 \
	pMol 0 \
	epsInf 1 \
	Pvap 0 \
	sigmaBulk 0 \
	Rvdw 2.19208 \
	Res 0 \
	tauNuc 343133
fluid-ex-corr lda-TF lda-PZ
fluid-gummel-loop 10 1.000000e-05
fluid-minimize  \
	dirUpdateScheme      PolakRibiere \
	linminMethod         DirUpdateRecommended \
	nIterations          400 \
	history              15 \
	knormThreshold       1e-11 \
	energyDiffThreshold  0 \
	nEnergyDiff          2 \
	alphaTstart          1 \
	alphaTmin            1e-10 \
	updateTestStepSize   yes \
	alphaTreduceFactor   0.1 \
	alphaTincreaseFactor 3 \
	nAlphaAdjustMax      6 \
	wolfeEnergy          0.0001 \
	wolfeGradient        0.9 \
	fdTest               no
fluid-solvent H2O 55.338 ScalarEOS \
	epsBulk 78.4 \
	pMol 0.92466 \
	epsInf 1.77 \
	Pvap 1.06736e-10 \
	sigmaBulk 4.62e-05 \
	Rvdw 2.61727 \
	Res 1.42 \
	tauNuc 343133 \
	poleEl 15 7 1
forces-output-coords Positions
ion C   0.037597000000000   0.008947000000000   0.019552000000000 0
ion C  21.088403000000003   3.970212000000001   0.020417000000000 0
ion C  18.742052000000005   7.972907000000001  43.205487000000005 0
ion C  -7.006473000000002  11.972437000000001  43.193418000000008 0
ion C  -9.335148000000002  15.983744000000003  43.248743000000005 0
ion C   4.722569000000000   0.112817000000000   0.049875000000000 0
ion C   2.335569000000000   4.128409000000001   0.156026000000000 0
ion C  -0.074219000000000   7.956545000000001   0.114197000000000 0
ion C  -2.390996000000002  11.963133000000001  43.236545000000007 0
ion C  -4.686767000000000  15.989648000000003  43.229580000000006 0
ion C   9.412528000000002   0.010239000000000  43.231311000000005 0
ion C   7.125528000000001   4.120874000000001   0.104421000000000 0
ion C   0.006805000000002  15.897587000000000  43.243120000000005 0
ion C   2.385263999999998  19.856027000000005  43.226293000000005 0
ion C  11.799551000000001   3.956237000000001  43.218853000000010 0
ion C   9.512715999999998   7.944453000000001   0.059391000000000 0
ion C   4.709412000000004  15.759367000000001   0.082533000000000 0
ion C   7.036271000000001  19.861653000000004  43.251295000000006 0
ion C  16.443636000000001   3.941827000000001  43.203108000000007 0
ion C  14.135646000000001   7.964761000000001  43.186238000000010 0
ion C  11.813177999999997  11.966317000000002  43.250863000000010 0
ion C   9.408206000000003  15.900755000000002   0.017778000000000 0
ion C   0.027226000000000   2.693267000000000   0.055844000000000 0
ion C  -2.378857000000000   6.625370000000002   0.017519000000000 0
ion C  -4.700679000000001  10.624791000000002  43.199085000000004 0
ion C  -7.009525000000000  14.648104000000002  43.223438000000009 0
ion C  -9.335058000000002  18.671883000000001   0.024007000000000 0
ion C   4.725307000000001   2.833039000000000   0.128688000000000 0
ion C  -0.077843000000001  10.645139000000002   0.076131000000000 0
ion C  -2.365310000000003  14.632836000000003  43.231441000000004 0
ion C  -4.684529000000001  18.675014999999998  43.255837000000007 0
ion C   9.428468000000001   2.689931000000000  43.249781000000006 0
ion C   2.311432000000002  14.467802000000002   0.085691000000000 0
ion C   0.021948000000000  18.577318000000005  43.219934000000009 0
ion C  14.121651999999999   2.599925000000000  43.205184000000010 0
ion C  11.826983000000000   6.626241000000002  43.222400000000007 0
ion C   9.506173000000002  10.634103000000001   0.071805000000000 0
ion C   7.100609000000000  14.470203000000003   0.097803000000000 0
ion C   4.711084000000000  18.478529999999999   0.007959000000000 0
ion C  18.770254999999999   2.607205000000000  43.235420000000005 0
ion C  16.441229000000000   6.618033000000001  43.183556000000010 0
ion C  14.128591000000000  10.635876000000001  43.198869000000009 0
ion C  11.782849000000004  14.638572000000002   0.003114000000000 0
ion C   9.397484000000002  18.585114999999998   0.001990000000000 0
ion C   4.407399999999999  10.146580000000002   5.512411000000002 1
ion N   2.201955000000000  11.881728000000003   0.209836000000000 0
ion N   7.214774000000001  11.868379000000003   0.219656000000000 0
ion N   2.219071999999999   6.731208000000001   0.278138000000000 0
ion N   7.236727000000001   6.706331000000000   0.204602000000000 0
ion Ti   4.740009999999999   9.319353000000001   1.694782000000000 0
ion O   3.884018000000001  10.897866000000000   7.818752000000002 1
ion O   6.265906999999999   8.653707000000002   5.190455000000001 1
ion H   2.404211000000001  12.048892000000000   7.798335000000001 1
ion-species /projects/musgravc/apps/jdftx-1.6.0/build/pseudopotentials/GBRV_v1.5/$ID_pbe_v1.uspp
ion-species /projects/musgravc/apps/jdftx-1.6.0/build/pseudopotentials/GBRV_v1.5/$ID_pbe_v1.2.uspp
ion-species /projects/musgravc/apps/jdftx-1.6.0/build/pseudopotentials/GBRV_v1.5/$ID_pbe_v1.4.uspp
ion-species /projects/musgravc/apps/jdftx-1.6.0/build/pseudopotentials/GBRV_v1.5/$ID_pbe_v1.5.uspp
ion-width Ecut
ionic-minimize  \
	dirUpdateScheme      L-BFGS \
	linminMethod         DirUpdateRecommended \
	nIterations          100 \
	history              15 \
	knormThreshold       0.0001 \
	energyDiffThreshold  0.0001 \
	nEnergyDiff          2 \
	alphaTstart          1 \
	alphaTmin            1e-10 \
	updateTestStepSize   yes \
	alphaTreduceFactor   0.1 \
	alphaTincreaseFactor 3 \
	nAlphaAdjustMax      3 \
	wolfeEnergy          0.0001 \
	wolfeGradient        0.9 \
	fdTest               no
kpoint   0.000000000000   0.000000000000   0.000000000000  1.00000000000000
kpoint-folding 3 3 1 
latt-move-scale 0 0 0
latt-scale 1 1 1 
lattice  \
	  23.436261999999999  -11.733459000000000    0.000000000000000  \
	   0.017994000000000   19.941849000000001    0.000000000000000  \
	   0.000000000000000    0.000000000000000   43.256312999999999 
lattice-minimize  \
	dirUpdateScheme      L-BFGS \
	linminMethod         DirUpdateRecommended \
	nIterations          0 \
	history              15 \
	knormThreshold       0 \
	energyDiffThreshold  1e-06 \
	nEnergyDiff          2 \
	alphaTstart          1 \
	alphaTmin            1e-10 \
	updateTestStepSize   yes \
	alphaTreduceFactor   0.1 \
	alphaTincreaseFactor 3 \
	nAlphaAdjustMax      3 \
	wolfeEnergy          0.0001 \
	wolfeGradient        0.9 \
	fdTest               no
lcao-params 30 1e-06 0.001
pcm-variant CANDLE
spintype z-spin
subspace-rotation-factor 1 yes
symmetries none
symmetry-threshold 0.0001
target-mu -0.1455 no

van-der-waals D3
vibrations \
	dr 0.01\
	centralDiff no\
	useConstraints yes\
	translationSym yes\
	rotationSym no\
	omegaMin 0.0002\
	T 298\
	omegaResolution 0.0001


Applied RMS atom displacement 0 bohrs to make symmetries exact.
Applied RMS atom displacement 0 bohrs to make symmetries exact.

---------- Initializing the Grid ----------
R = 
[      23.4363     -11.7335            0  ]
[     0.017994      19.9418            0  ]
[            0            0      43.2563  ]
unit cell volume = 20225.5
G =
[   0.267976   0.157673         -0  ]
[ -0.000241801   0.314933          0  ]
[          0         -0   0.145255  ]
Minimum fftbox size, Smin = [  96  96  176  ]
Chosen fftbox size, S = [  96  96  180  ]

---------- Exchange Correlation functional ----------
Initalized PBE GGA exchange.
Initalized PBE GGA correlation.

---------- Setting up pseudopotentials ----------
Width of ionic core gaussian charges (only for fluid interactions / plotting) set to 0.397384

Reading pseudopotential file '/projects/musgravc/apps/jdftx-1.6.0/build/pseudopotentials/GBRV_v1.5/c_pbe_v1.2.uspp':
  Title: C.  Created by USPP 7.3.6 on 3-2-2014
  Reference state energy: -5.406344.  4 valence electrons in orbitals:
    |200>  occupation: 2  eigenvalue: -0.504890
    |210>  occupation: 2  eigenvalue: -0.194356
  lMax: 1  lLocal: 2  QijEcut: 5
  4 projectors sampled on a log grid with 503 points:
    l: 0  eig: -0.504890  rCut: 1.3
    l: 0  eig: 0.000000  rCut: 1.3
    l: 1  eig: -0.194357  rCut: 1.3
    l: 1  eig: 0.000000  rCut: 1.3
  Partial core density with radius 1.1
  Transforming core density to a uniform radial grid of dG=0.02 with 1464 points.
  Transforming local potential to a uniform radial grid of dG=0.02 with 1464 points.
  Transforming nonlocal projectors to a uniform radial grid of dG=0.02 with 432 points.
  Transforming density augmentations to a uniform radial grid of dG=0.02 with 1464 points.
  Transforming atomic orbitals to a uniform radial grid of dG=0.02 with 432 points.
  Core radius for overlap checks: 1.30 bohrs.

Reading pseudopotential file '/projects/musgravc/apps/jdftx-1.6.0/build/pseudopotentials/GBRV_v1.5/n_pbe_v1.2.uspp':
  Title: N.  Created by USPP 7.3.6 on 3-2-2014
  Reference state energy: -9.763716.  5 valence electrons in orbitals:
    |200>  occupation: 2  eigenvalue: -0.681964
    |210>  occupation: 3  eigenvalue: -0.260726
  lMax: 1  lLocal: 2  QijEcut: 6
  4 projectors sampled on a log grid with 491 points:
    l: 0  eig: -0.681964  rCut: 1.15
    l: 0  eig: 0.000000  rCut: 1.15
    l: 1  eig: -0.260729  rCut: 1.2
    l: 1  eig: 0.500000  rCut: 1.2
  Partial core density with radius 0.8
  Transforming core density to a uniform radial grid of dG=0.02 with 1464 points.
  Transforming local potential to a uniform radial grid of dG=0.02 with 1464 points.
  Transforming nonlocal projectors to a uniform radial grid of dG=0.02 with 432 points.
  Transforming density augmentations to a uniform radial grid of dG=0.02 with 1464 points.
  Transforming atomic orbitals to a uniform radial grid of dG=0.02 with 432 points.
  Core radius for overlap checks: 1.20 bohrs.

Reading pseudopotential file '/projects/musgravc/apps/jdftx-1.6.0/build/pseudopotentials/GBRV_v1.5/ti_pbe_v1.4.uspp':
  Title: Ti.  Created by USPP 7.3.6 on 31-3-15
  Reference state energy: -59.020943.  12 valence electrons in orbitals:
    |300>  occupation: 2  eigenvalue: -2.777623
    |310>  occupation: 6  eigenvalue: -1.894596
    |400>  occupation: 2  eigenvalue: -0.438610
    |320>  occupation: 1  eigenvalue: -0.583119
  lMax: 2  lLocal: 3  QijEcut: 6
  6 projectors sampled on a log grid with 597 points:
    l: 0  eig: -2.777624  rCut: 1.8
    l: 0  eig: -0.438611  rCut: 1.8
    l: 1  eig: -1.894596  rCut: 1.8
    l: 1  eig: 0.500000  rCut: 1.8
    l: 2  eig: -0.583118  rCut: 1.8
    l: 2  eig: 0.150000  rCut: 1.8
  Partial core density with radius 0.8
  Transforming core density to a uniform radial grid of dG=0.02 with 1464 points.
  Transforming local potential to a uniform radial grid of dG=0.02 with 1464 points.
  Transforming nonlocal projectors to a uniform radial grid of dG=0.02 with 432 points.
  Transforming density augmentations to a uniform radial grid of dG=0.02 with 1464 points.
  Transforming atomic orbitals to a uniform radial grid of dG=0.02 with 432 points.
  Core radius for overlap checks: 1.80 bohrs.

Reading pseudopotential file '/projects/musgravc/apps/jdftx-1.6.0/build/pseudopotentials/GBRV_v1.5/o_pbe_v1.2.uspp':
  Title: O.  Created by USPP 7.3.6 on 3-2-2014
  Reference state energy: -15.894388.  6 valence electrons in orbitals:
    |200>  occupation: 2  eigenvalue: -0.878823
    |210>  occupation: 4  eigenvalue: -0.332131
  lMax: 2  lLocal: 2  QijEcut: 6
  5 projectors sampled on a log grid with 511 points:
    l: 0  eig: -0.878823  rCut: 1.25
    l: 0  eig: 0.000000  rCut: 1.25
    l: 1  eig: -0.332132  rCut: 1.25
    l: 1  eig: 0.000000  rCut: 1.25
    l: 2  eig: 1.000000  rCut: 1.25
  Partial core density with radius 0.7
  Transforming core density to a uniform radial grid of dG=0.02 with 1464 points.
  Transforming local potential to a uniform radial grid of dG=0.02 with 1464 points.
  Transforming nonlocal projectors to a uniform radial grid of dG=0.02 with 432 points.
  Transforming density augmentations to a uniform radial grid of dG=0.02 with 1464 points.
  Transforming atomic orbitals to a uniform radial grid of dG=0.02 with 432 points.
  Core radius for overlap checks: 1.25 bohrs.

Reading pseudopotential file '/projects/musgravc/apps/jdftx-1.6.0/build/pseudopotentials/GBRV_v1.5/h_pbe_v1.4.uspp':
  Title: H.  Created by USPP 7.3.6 on 2-4-15
  Reference state energy: -0.458849.  1 valence electrons in orbitals:
    |100>  occupation: 1  eigenvalue: -0.238595
  lMax: 0  lLocal: 1  QijEcut: 6
  2 projectors sampled on a log grid with 395 points:
    l: 0  eig: -0.238595  rCut: 1.2
    l: 0  eig: 1.000000  rCut: 1.2
  Transforming local potential to a uniform radial grid of dG=0.02 with 1464 points.
  Transforming nonlocal projectors to a uniform radial grid of dG=0.02 with 432 points.
  Transforming density augmentations to a uniform radial grid of dG=0.02 with 1464 points.
  Transforming atomic orbitals to a uniform radial grid of dG=0.02 with 432 points.
  Core radius for overlap checks: 1.20 bohrs.

Initialized 5 species with 53 total atoms.

Folded 1 k-points by 3x3x1 to 9 k-points.

---------- Setting up k-points, bands, fillings ----------
No reducable k-points. 
Computing the number of bands and number of electrons
Calculating initial fillings.
nElectrons: 225.000000   nBands: 135   nStates: 18

----- Setting up reduced wavefunction bases (one per k-point) -----
average nbasis = 86412.556 , ideal nbasis = 86404.907

----- Initializing Supercell corresponding to k-point mesh -----
Lattice vector linear combinations in supercell:
[   3   0   0  ]
[   0   3   0  ]
[   0   0   1  ]
Supercell lattice vectors:
[  70.3088  -35.2004  0  ]
[  0.053982  59.8255  0  ]
[  0  0  43.2563  ]

Initializing DFT-D3 calculator:
	Parameters set for gga-PBE functional
	s6:  1.000  s_r6:  1.217
	s8:  0.722  s_r8:  1.000
	Per-atom parameters loaded for:
	 C:  sqrtQ[a0]:  3.105  Rcov[a0]:  1.417  CN: [ 0.00 0.99 2.00 3.00 3.98 ]
	 N:  sqrtQ[a0]:  2.712  Rcov[a0]:  1.342  CN: [ 0.00 0.99 2.01 2.99 ]
	Ti:  sqrtQ[a0]:  6.288  Rcov[a0]:  2.305  CN: [ 0.00 1.83 3.87 ]
	 O:  sqrtQ[a0]:  2.594  Rcov[a0]:  1.191  CN: [ 0.00 0.99 1.99 ]
	 H:  sqrtQ[a0]:  2.007  Rcov[a0]:  0.605  CN: [ 0.91 0.00 ]

Initializing DFT-D2 calculator for fluid / solvation:
	 C:  C6:   30.35 Eh-a0^6  R0: 2.744 a0
	 N:  C6:   21.33 Eh-a0^6  R0: 2.640 a0
	Ti:  C6:  187.33 Eh-a0^6  R0: 2.952 a0
	 O:  C6:   12.14 Eh-a0^6  R0: 2.536 a0
	 H:  C6:    2.43 Eh-a0^6  R0: 1.892 a0

---------- Setting up ewald sum ----------
Optimum gaussian width for ewald sums = 5.608291 bohr.
Real space sum over 567 unit cells with max indices [  4  4  3  ]
Reciprocal space sum over 7803 terms with max indices [  8  8  13  ]

Computing DFT-D3 correction:
# coordination-number C 3.300 3.321 3.334 3.332 3.312 3.289 3.320 3.588 3.329 3.313 3.302 3.325 3.304 3.301 3.324 3.602 3.269 3.301 3.319 3.334 3.326 3.301 3.300 3.326 3.334 3.319 3.300 3.266 3.588 3.324 3.301 3.304 3.328 3.302 3.313 3.329 3.614 3.327 3.290 3.312 3.332 3.334 3.321 3.300 3.012
# coordination-number N 3.179 3.178 3.174 3.179
# coordination-number Ti 7.460
# coordination-number O 2.022 1.991
# coordination-number H 1.008
# diagonal-C6 C 24.29 24.07 23.93 23.96 24.16 24.38 24.08 20.42 23.98 24.15 24.27 24.03 24.24 24.27 24.04 20.25 24.56 24.28 24.09 23.93 24.02 24.27 24.28 24.01 23.93 24.09 24.28 24.58 20.42 24.04 24.27 24.24 24.00 24.27 24.15 23.98 20.11 24.00 24.37 24.16 23.96 23.93 24.07 24.28 25.65
# diagonal-C6 N 15.60 15.60 15.60 15.60
# diagonal-C6 Ti 321.59
# diagonal-C6 O 10.40 10.41
# diagonal-C6 H 3.09
EvdW_6 =   -0.040347
EvdW_8 =   -0.032121

---------- Allocating electronic variables ----------
Initializing wave functions:  linear combination of atomic orbitals
C pseudo-atom occupations:   s ( 2 )  p ( 2 )
N pseudo-atom occupations:   s ( 2 )  p ( 3 )
Ti pseudo-atom occupations:   s ( 2 0 )  p ( 6 )  d ( 4 )
O pseudo-atom occupations:   s ( 2 )  p ( 4 )
H pseudo-atom occupations:   s ( 1 )
	FillingsUpdate:  mu: -0.145500000  nElectrons: 225.000000  magneticMoment: [ Abs: 0.00457  Tot: +0.00047 ]
LCAOMinimize: Iter:   0  G: -349.4627186459773611  |grad|_K:  1.184e-02  alpha:  1.000e+00
	FillingsUpdate:  mu: -0.145500000  nElectrons: 225.000000  magneticMoment: [ Abs: 0.00429  Tot: -0.00007 ]
LCAOMinimize: Iter:   1  G: -350.2889242672747514  |grad|_K:  2.263e-03  alpha:  3.462e-01  linmin: -7.368e-03  cgtest: -4.202e+00  t[s]:    290.39
	FillingsUpdate:  mu: -0.145500000  nElectrons: 225.000000  magneticMoment: [ Abs: 0.00429  Tot: -0.00008 ]
LCAOMinimize: Iter:   2  G: -350.3498430002188684  |grad|_K:  2.289e-03  alpha:  1.240e-02  linmin: -9.025e-02  cgtest:  9.602e-01  t[s]:    407.77
LCAOMinimize: 	Wrong curvature in test step, increasing alphaT to 3.720099e-02.
	FillingsUpdate:  mu: -0.145500000  nElectrons: 225.000000  magneticMoment: [ Abs: 0.00430  Tot: -0.00008 ]
LCAOMinimize: Iter:   3  G: -350.4088596864030478  |grad|_K:  2.292e-03  alpha: -3.038e-01  linmin: -1.708e-01  cgtest:  9.598e-01  t[s]:    523.35
	FillingsUpdate:  mu: -0.145500000  nElectrons: 225.000000  magneticMoment: [ Abs: 0.00516  Tot: +0.00105 ]
LCAOMinimize: Iter:   4  G: -351.0883043220683817  |grad|_K:  8.074e-03  alpha:  3.965e-02  linmin: -1.412e-01  cgtest:  2.230e-01  t[s]:    640.68
	FillingsUpdate:  mu: -0.145500000  nElectrons: 225.000000  magneticMoment: [ Abs: 0.00432  Tot: +0.00003 ]
LCAOMinimize: Iter:   5  G: -351.9716800273252488  |grad|_K:  9.229e-04  alpha:  1.263e-02  linmin: -7.577e-02  cgtest: -1.711e+00  t[s]:    758.41
	FillingsUpdate:  mu: -0.145500000  nElectrons: 225.000000  magneticMoment: [ Abs: 0.00432  Tot: +0.00003 ]
LCAOMinimize: Iter:   6  G: -351.9771930039458425  |grad|_K:  9.253e-04  alpha:  2.196e-03  linmin: -5.736e-02  cgtest:  9.621e-01  t[s]:    875.99
LCAOMinimize: 	Predicted alpha/alphaT>3.000000, increasing alphaT to 6.587530e-03.
LCAOMinimize: 	Predicted alpha/alphaT>3.000000, increasing alphaT to 1.976259e-02.
LCAOMinimize: 	Predicted alpha/alphaT>3.000000, increasing alphaT to 5.928777e-02.
LCAOMinimize: 	Step increased G by 7.514437e-02, reducing alpha to 2.542594e-02.
	FillingsUpdate:  mu: -0.145500000  nElectrons: 225.000000  magneticMoment: [ Abs: 0.00432  Tot: +0.00003 ]
LCAOMinimize: Iter:   7  G: -351.9965549297289158  |grad|_K:  8.292e-04  alpha:  2.543e-02  linmin: -2.064e-01  cgtest:  9.963e-01  t[s]:   1141.30
LCAOMinimize: Encountered beta<0, resetting CG.
LCAOMinimize: 	Predicted alpha/alphaT>3.000000, increasing alphaT to 7.627781e-02.
LCAOMinimize: 	Predicted alpha/alphaT>3.000000, increasing alphaT to 2.288334e-01.
	FillingsUpdate:  mu: -0.145500000  nElectrons: 225.000000  magneticMoment: [ Abs: 0.00434  Tot: -0.00001 ]
LCAOMinimize: Iter:   8  G: -352.0273753966436061  |grad|_K:  2.054e-03  alpha:  2.807e-01  linmin:  1.202e-01  cgtest: -2.175e-01  t[s]:   1319.87
LCAOMinimize: 	Bad step direction: g.d > 0.
LCAOMinimize: 	Undoing step.
LCAOMinimize: 	Step failed: resetting search direction.
	FillingsUpdate:  mu: -0.145500000  nElectrons: 225.000000  magneticMoment: [ Abs: 0.00434  Tot: -0.00001 ]
LCAOMinimize: Iter:   9  G: -352.0273753966436061  |grad|_K:  2.054e-03  alpha:  0.000e+00
	FillingsUpdate:  mu: -0.145500000  nElectrons: 225.000000  magneticMoment: [ Abs: 0.00434  Tot: +0.00002 ]
LCAOMinimize: Iter:  10  G: -352.0686812014874363  |grad|_K:  4.047e-04  alpha:  1.386e-01  linmin:  9.630e-02  cgtest: -2.855e+00  t[s]:   1525.35
LCAOMinimize: 	Bad step direction: g.d > 0.
LCAOMinimize: 	Undoing step.
LCAOMinimize: 	Step failed: resetting search direction.
	FillingsUpdate:  mu: -0.145500000  nElectrons: 225.000000  magneticMoment: [ Abs: 0.00434  Tot: +0.00002 ]
LCAOMinimize: Iter:  11  G: -352.0686812014874363  |grad|_K:  4.047e-04  alpha:  0.000e+00
	FillingsUpdate:  mu: -0.145500000  nElectrons: 225.000000  magneticMoment: [ Abs: 0.00437  Tot: +0.00003 ]
LCAOMinimize: Iter:  12  G: -352.0709481857959418  |grad|_K:  8.393e-04  alpha:  2.136e-01  linmin:  1.442e-01  cgtest: -4.112e-01  t[s]:   1730.79
LCAOMinimize: 	Bad step direction: g.d > 0.
LCAOMinimize: 	Undoing step.
LCAOMinimize: 	Step failed: resetting search direction.
	FillingsUpdate:  mu: -0.145500000  nElectrons: 225.000000  magneticMoment: [ Abs: 0.00437  Tot: +0.00003 ]
LCAOMinimize: Iter:  13  G: -352.0709481857959418  |grad|_K:  8.393e-04  alpha:  0.000e+00
	FillingsUpdate:  mu: -0.145500000  nElectrons: 225.000000  magneticMoment: [ Abs: 0.00437  Tot: +0.00004 ]
LCAOMinimize: Iter:  14  G: -352.0801891276458946  |grad|_K:  1.563e-04  alpha:  1.079e-01  linmin:  1.026e-01  cgtest: -2.214e+00  t[s]:   1935.99
LCAOMinimize: 	Bad step direction: g.d > 0.
LCAOMinimize: 	Undoing step.
LCAOMinimize: 	Step failed: resetting search direction.
	FillingsUpdate:  mu: -0.145500000  nElectrons: 225.000000  magneticMoment: [ Abs: 0.00437  Tot: +0.00004 ]
LCAOMinimize: Iter:  15  G: -352.0801891276458946  |grad|_K:  1.563e-04  alpha:  0.000e+00
LCAOMinimize: 	Step increased G by 9.748541e-05, reducing alpha to 1.965504e-02.
	FillingsUpdate:  mu: -0.145500000  nElectrons: 225.000000  magneticMoment: [ Abs: 0.00437  Tot: +0.00004 ]
LCAOMinimize: Iter:  16  G: -352.0805757171148116  |grad|_K:  1.404e-04  alpha:  1.966e-02  linmin: -1.765e-01  cgtest:  9.758e-01  t[s]:   2228.50
LCAOMinimize: Encountered beta<0, resetting CG.
LCAOMinimize: 	Predicted alpha/alphaT>3.000000, increasing alphaT to 5.896511e-02.
LCAOMinimize: 	Predicted alpha/alphaT>3.000000, increasing alphaT to 1.768953e-01.
	FillingsUpdate:  mu: -0.145500000  nElectrons: 225.000000  magneticMoment: [ Abs: 0.00438  Tot: +0.00005 ]
LCAOMinimize: Iter:  17  G: -352.0818911492295342  |grad|_K:  4.815e-05  alpha:  1.161e-01  linmin: -1.329e-01  cgtest:  3.736e-01  t[s]:   2406.68
LCAOMinimize: Encountered beta<0, resetting CG.
	FillingsUpdate:  mu: -0.145500000  nElectrons: 225.000000  magneticMoment: [ Abs: 0.00441  Tot: +0.00006 ]
LCAOMinimize: Iter:  18  G: -352.0822187029233419  |grad|_K:  5.644e-05  alpha:  3.467e-01  linmin:  5.047e-03  cgtest:  1.202e-01  t[s]:   2524.34
	FillingsUpdate:  mu: -0.145500000  nElectrons: 225.000000  magneticMoment: [ Abs: 0.00443  Tot: +0.00007 ]
LCAOMinimize: Iter:  19  G: -352.0823804107575370  |grad|_K:  2.075e-05  alpha:  1.425e-01  linmin: -4.153e-03  cgtest: -2.490e-02  t[s]:   2642.51
LCAOMinimize: 	Predicted alpha/alphaT>3.000000, increasing alphaT to 4.273741e-01.
	FillingsUpdate:  mu: -0.145500000  nElectrons: 225.000000  magneticMoment: [ Abs: 0.00446  Tot: +0.00010 ]
LCAOMinimize: Iter:  20  G: -352.0824601073674103  |grad|_K:  7.841e-06  alpha:  4.360e-01  linmin:  7.260e-03  cgtest: -1.955e-01  t[s]:   2790.33
	FillingsUpdate:  mu: -0.145500000  nElectrons: 225.000000  magneticMoment: [ Abs: 0.00447  Tot: +0.00010 ]
LCAOMinimize: Iter:  21  G: -352.0824639649667915  |grad|_K:  4.884e-06  alpha:  1.274e-01  linmin:  2.870e-02  cgtest: -1.936e-01  t[s]:   2907.91
	FillingsUpdate:  mu: -0.145500000  nElectrons: 225.000000  magneticMoment: [ Abs: 0.00447  Tot: +0.00011 ]
LCAOMinimize: Iter:  22  G: -352.0824641916569817  |grad|_K:  3.527e-06  alpha:  6.481e-02  linmin: -7.675e-02  cgtest:  9.784e-01  t[s]:   3025.61
LCAOMinimize: Encountered beta<0, resetting CG.
LCAOMinimize: 	Step increased G by 8.406005e-10, reducing alpha to 2.711797e-03.
	FillingsUpdate:  mu: -0.145500000  nElectrons: 225.000000  magneticMoment: [ Abs: 0.00447  Tot: +0.00011 ]
LCAOMinimize: Iter:  23  G: -352.0824641950903811  |grad|_K:  3.433e-06  alpha:  2.712e-03  linmin: -1.832e-01  cgtest:  9.998e-01  t[s]:   3230.86
LCAOMinimize: Encountered beta<0, resetting CG.
LCAOMinimize: Converged (|Delta G|<1.000000e-06 for 2 iters).
----- createFluidSolver() ----- (Fluid-side solver setup)
   Initializing fluid molecule 'H2O'
     Initializing site 'O'
       Electron density: proportional to exp(-r/0.36935)*erfc((r-0.51523)/0.36823) with norm 6.826
       Charge density: gaussian nuclear width 0.478731 with net site charge 0.826
       Polarizability: cuspless exponential with width 0.32 and norm 3.73
       Hard sphere radius: 2.57003 bohrs
       Positions in reference frame:
         [ +0.000000 +0.000000 +0.000000 ]
     Initializing site 'H'
       Electron density: proportional to exp(-r/0.34641)*erfc((r-0)/0.390882) with norm 0.587
       Charge density: gaussian nuclear width 0.377945 with net site charge -0.413
       Polarizability: cuspless exponential with width 0.39 and norm 3.3
       Positions in reference frame:
         [ +0.000000 -1.441945 +1.122523 ]
         [ +0.000000 +1.441945 +1.122523 ]
     Net charge: 0   dipole magnitude: 0.927204
     Initializing spherical shell mfKernel with radius 2.61727 Bohr
     deltaS corrections:
       site 'O': -7.54299
       site 'H': -6.83917
   Initializing fluid molecule 'Na+'
     Initializing site 'Na'
       Electron density: proportional to exp(-r/0.19682)*erfc((r-0.71491)/0.41314) with norm 8.1383
       Charge density: gaussian nuclear width 0.365347 with net site charge -1
       Hard sphere radius: 1.86327 bohrs
       Positions in reference frame:
         [ +0.000000 +0.000000 +0.000000 ]
     Net charge: -1   dipole magnitude: 0
     Initializing gaussian mfKernel with width: 1.55004 Bohr
     deltaS corrections:
       site 'Na': -22.3555
   Initializing fluid molecule 'F-'
     Initializing site 'F'
       Electron density: proportional to exp(-r/0.38886)*erfc((r-0)/0.438782) with norm 8
       Charge density: gaussian nuclear width 0.374796 with net site charge 1
       Hard sphere radius: 2.39995 bohrs
       Positions in reference frame:
         [ +0.000000 +0.000000 +0.000000 ]
     Net charge: 1   dipole magnitude: 0
     Initializing gaussian mfKernel with width: 1.59012 Bohr
     deltaS corrections:
       site 'F': -9.04335

Correction to mu due to finite nuclear width = -0.0110378
   Cavity determined by nc: 0.00142 and sigma: 0.707107
   Nonlocal vdW cavity from gaussian model electron density with norm = 8 and sigma = 0.993594 bohr
   Charge asymmetry in cavity with sensitivity pCavity = 36.5 e-bohr/Eh
   Electrostatic cavity expanded by eta = 1.46 bohrs
   Weighted density cavitation model constrained by Nbulk: 0.0049383 bohr^-3, Pvap: 3.14029 kPa, Rvdw: 2.61727 bohr and sigmaBulk: 4.62e-05 Eh/bohr^2 at T: 298 K.
   Weighted density dispersion model using vdW pair potentials with single solvent site with sqrtC6eff: 0.77 SI.
WARNING: Vibrations: switching off translationSym and rotationSym since useConstraints is on.

---- Citations for features of the code used in this run ----

   Software package:
      R. Sundararaman, K. Letchworth-Weaver, K.A. Schwarz, D. Gunceler, Y. Ozhabes and T.A. Arias, 'JDFTx: software for joint density-functional theory', SoftwareX 6, 278 (2017)

   gga-PBE exchange-correlation functional:
      J.P. Perdew, K. Burke and M. Ernzerhof, Phys. Rev. Lett. 77, 3865 (1996)

   Pseudopotentials:
      KF Garrity, JW Bennett, KM Rabe and D Vanderbilt, Comput. Mater. Sci. 81, 446 (2014)

   DFT-D3 dispersion correction:
      S. Grimme, J. Antony, S. Ehrlich and H. Krieg, J. Chem. Phys. 132, 154104 (2010)

   DFT-D2 dispersion correction:
      S. Grimme, J. Comput. Chem. 27, 1787 (2006)

   Charge-asymmetric nonlocally-determined local-electric (CANDLE) solvation model:
      R. Sundararaman and W.A. Goddard III, J. Chem. Phys. 142, 064107 (2015)

   Total energy minimization with Auxiliary Hamiltonian:
      C. Freysoldt, S. Boeck, and J. Neugebauer, Phys. Rev. B 79, 241103(R) (2009)

   Grand-canonical (fixed-potential) DFT:
      R. Sundararaman, W. A. Goddard III and T. A. Arias, J. Chem. Phys. 146, 114104 (2017)

   Linear-tetrahedron sampling for density of states:
      G. Lehmann and M. Taut, Phys. status solidi (b) 54, 469 (1972)

This list may not be complete. Please suggest additional citations or
report any other bugs at https://github.com/shankar1729/jdftx/issues

Initialization completed successfully at t[s]:   3246.30

------ Vibrations::calculate() -------
WARNING: Vibrations module is experimental. Please report bugs!
Compare results with and without symmetries and report discrepancies.
Degrees of freedom: 12 total, 12 symmetry-independent.

Computing DFT-D3 correction:
# coordination-number C 3.300 3.321 3.334 3.332 3.312 3.289 3.320 3.588 3.329 3.313 3.302 3.325 3.304 3.301 3.324 3.602 3.269 3.301 3.319 3.334 3.326 3.301 3.300 3.326 3.334 3.319 3.300 3.266 3.588 3.324 3.301 3.304 3.328 3.302 3.313 3.329 3.614 3.327 3.290 3.312 3.332 3.334 3.321 3.300 3.012
# coordination-number N 3.179 3.178 3.174 3.179
# coordination-number Ti 7.460
# coordination-number O 2.022 1.991
# coordination-number H 1.008
# diagonal-C6 C 24.29 24.07 23.93 23.96 24.16 24.38 24.08 20.42 23.98 24.15 24.27 24.03 24.24 24.27 24.04 20.25 24.56 24.28 24.09 23.93 24.02 24.27 24.28 24.01 23.93 24.09 24.28 24.58 20.42 24.04 24.27 24.24 24.00 24.27 24.15 23.98 20.11 24.00 24.37 24.16 23.96 23.93 24.07 24.28 25.65
# diagonal-C6 N 15.60 15.60 15.60 15.60
# diagonal-C6 Ti 321.59
# diagonal-C6 O 10.40 10.41
# diagonal-C6 H 3.09
EvdW_6 =   -0.040347
EvdW_8 =   -0.032121
Fluid solver invoked on fresh (random / LCAO) wavefunctions
Running a vacuum solve first:

-------- Initial electronic minimization -----------
	FillingsUpdate:  mu: -0.187149661  nElectrons: 225.000000  magneticMoment: [ Abs: 0.00447  Tot: +0.00011 ]
ElecMinimize: Iter:   0  G: -352.082753178161965  |grad|_K:  1.442e-04  alpha:  1.000e+00
	FillingsUpdate:  mu: -0.120027042  nElectrons: 225.000000  magneticMoment: [ Abs: 0.00248  Tot: +0.00014 ]
	SubspaceRotationAdjust: set factor to 1
ElecMinimize: Iter:   1  G: -355.030077141970878  |grad|_K:  5.053e-05  alpha:  6.835e-01  linmin:  1.441e-05  t[s]:   3434.90
	FillingsUpdate:  mu: -0.059792266  nElectrons: 225.000000  magneticMoment: [ Abs: 0.00285  Tot: +0.00073 ]
	SubspaceRotationAdjust: set factor to 0.75
ElecMinimize: Iter:   2  G: -355.084929157385204  |grad|_K:  5.625e-05  alpha:  1.224e-01  linmin: -4.398e-04  t[s]:   3549.97
	FillingsUpdate:  mu: -0.124115170  nElectrons: 225.000000  magneticMoment: [ Abs: 0.00145  Tot: +0.00041 ]
	SubspaceRotationAdjust: set factor to 0.355
ElecMinimize: Iter:   3  G: -355.265919376607258  |grad|_K:  3.441e-05  alpha:  3.253e-01  linmin:  1.011e-03  t[s]:   3665.00
	FillingsUpdate:  mu: -0.061819487  nElectrons: 225.000000  magneticMoment: [ Abs: 0.00345  Tot: +0.00274 ]
	SubspaceRotationAdjust: set factor to 0.17
ElecMinimize: Iter:   4  G: -355.293212169025310  |grad|_K:  2.425e-05  alpha:  1.128e-01  linmin:  1.097e-03  t[s]:   3780.14
ElecMinimize: 	Predicted alpha/alphaT>3.000000, increasing alphaT to 3.384979e-01.
	FillingsUpdate:  mu: -0.063332876  nElectrons: 225.000000  magneticMoment: [ Abs: 0.00643  Tot: +0.00601 ]
	SubspaceRotationAdjust: set factor to 0.169
ElecMinimize: Iter:   5  G: -355.322141335119170  |grad|_K:  1.656e-05  alpha:  3.567e-01  linmin:  2.070e-04  t[s]:   3924.73
	FillingsUpdate:  mu: -0.063411350  nElectrons: 225.000000  magneticMoment: [ Abs: 0.00913  Tot: +0.00886 ]
	SubspaceRotationAdjust: set factor to 0.243
ElecMinimize: Iter:   6  G: -355.340495184868132  |grad|_K:  1.173e-05  alpha:  3.299e-01  linmin: -4.184e-05  t[s]:   4039.27
	FillingsUpdate:  mu: -0.090617946  nElectrons: 225.000000  magneticMoment: [ Abs: 0.01112  Tot: +0.01084 ]
	SubspaceRotationAdjust: set factor to 0.194
ElecMinimize: Iter:   7  G: -355.350909295620511  |grad|_K:  1.006e-05  alpha:  3.691e-01  linmin:  1.304e-03  t[s]:   4154.23
	FillingsUpdate:  mu: -0.086025927  nElectrons: 225.000000  magneticMoment: [ Abs: 0.01490  Tot: +0.01455 ]
	SubspaceRotationAdjust: set factor to 0.291
ElecMinimize: Iter:   8  G: -355.355069551512031  |grad|_K:  7.130e-06  alpha:  2.395e-01  linmin:  8.166e-06  t[s]:   4268.99
	FillingsUpdate:  mu: -0.065023725  nElectrons: 225.000000  magneticMoment: [ Abs: 0.02128  Tot: +0.02085 ]
	SubspaceRotationAdjust: set factor to 0.276
ElecMinimize: Iter:   9  G: -355.357556336254447  |grad|_K:  5.492e-06  alpha:  2.330e-01  linmin: -1.509e-04  t[s]:   4384.22
	FillingsUpdate:  mu: -0.063091758  nElectrons: 225.000000  magneticMoment: [ Abs: 0.03366  Tot: +0.03308 ]
	SubspaceRotationAdjust: set factor to 0.32
ElecMinimize: Iter:  10  G: -355.359456574099909  |grad|_K:  4.012e-06  alpha:  2.972e-01  linmin: -6.754e-06  t[s]:   4498.84
	FillingsUpdate:  mu: -0.066582781  nElectrons: 225.000000  magneticMoment: [ Abs: 0.04379  Tot: +0.04301 ]
	SubspaceRotationAdjust: set factor to 0.336
ElecMinimize: Iter:  11  G: -355.360152062536997  |grad|_K:  2.693e-06  alpha:  2.040e-01  linmin:  5.164e-06  t[s]:   4613.38
	FillingsUpdate:  mu: -0.073087797  nElectrons: 225.000000  magneticMoment: [ Abs: 0.07175  Tot: +0.07051 ]
	SubspaceRotationAdjust: set factor to 0.361
ElecMinimize: Iter:  12  G: -355.360730774912042  |grad|_K:  3.067e-06  alpha:  3.810e-01  linmin:  1.268e-05  t[s]:   4727.99
	FillingsUpdate:  mu: -0.066805526  nElectrons: 225.000000  magneticMoment: [ Abs: 0.11330  Tot: +0.11151 ]
	SubspaceRotationAdjust: set factor to 0.442
ElecMinimize: Iter:  13  G: -355.361124460484973  |grad|_K:  1.857e-06  alpha:  1.998e-01  linmin: -8.664e-07  t[s]:   4842.95
	FillingsUpdate:  mu: -0.063861573  nElectrons: 225.000000  magneticMoment: [ Abs: 0.19297  Tot: +0.19007 ]
	SubspaceRotationAdjust: set factor to 0.348
ElecMinimize: Iter:  14  G: -355.361366910673041  |grad|_K:  2.733e-06  alpha:  3.402e-01  linmin:  6.420e-05  t[s]:   4957.60
	FillingsUpdate:  mu: -0.065037137  nElectrons: 225.000000  magneticMoment: [ Abs: 0.34241  Tot: +0.33676 ]
	SubspaceRotationAdjust: set factor to 0.476
ElecMinimize: Iter:  15  G: -355.361745516108897  |grad|_K:  3.245e-06  alpha:  2.351e-01  linmin:  1.317e-05  t[s]:   5072.49
	FillingsUpdate:  mu: -0.067968531  nElectrons: 225.000000  magneticMoment: [ Abs: 0.44136  Tot: +0.43173 ]
	SubspaceRotationAdjust: set factor to 0.556
ElecMinimize: Iter:  16  G: -355.362044097306068  |grad|_K:  3.283e-06  alpha:  1.429e-01  linmin:  1.325e-05  t[s]:   5187.13
	FillingsUpdate:  mu: -0.070502168  nElectrons: 225.000000  magneticMoment: [ Abs: 0.50148  Tot: +0.48571 ]
	SubspaceRotationAdjust: set factor to 0.669
ElecMinimize: Iter:  17  G: -355.362311610276038  |grad|_K:  2.863e-06  alpha:  1.230e-01  linmin: -5.710e-05  t[s]:   5302.07
	FillingsUpdate:  mu: -0.070393910  nElectrons: 225.000000  magneticMoment: [ Abs: 0.54572  Tot: +0.52017 ]
	SubspaceRotationAdjust: set factor to 0.859
ElecMinimize: Iter:  18  G: -355.362571786088552  |grad|_K:  2.293e-06  alpha:  1.415e-01  linmin: -1.200e-04  t[s]:   5416.77
	FillingsUpdate:  mu: -0.068933508  nElectrons: 225.000000  magneticMoment: [ Abs: 0.58123  Tot: +0.54084 ]
	SubspaceRotationAdjust: set factor to 1
ElecMinimize: Iter:  19  G: -355.362785734187526  |grad|_K:  2.098e-06  alpha:  1.775e-01  linmin: -2.554e-04  t[s]:   5531.83
	FillingsUpdate:  mu: -0.070033911  nElectrons: 225.000000  magneticMoment: [ Abs: 0.62069  Tot: +0.55110 ]
	SubspaceRotationAdjust: set factor to 1.16
ElecMinimize: Iter:  20  G: -355.363032191111472  |grad|_K:  2.051e-06  alpha:  2.460e-01  linmin: -4.154e-05  t[s]:   5646.97
	FillingsUpdate:  mu: -0.070940652  nElectrons: 225.000000  magneticMoment: [ Abs: 0.65663  Tot: +0.55405 ]
	SubspaceRotationAdjust: set factor to 1.3
ElecMinimize: Iter:  21  G: -355.363219011143372  |grad|_K:  1.727e-06  alpha:  2.084e-01  linmin: -3.215e-06  t[s]:   5761.51
	FillingsUpdate:  mu: -0.069985582  nElectrons: 225.000000  magneticMoment: [ Abs: 0.68303  Tot: +0.55491 ]
	SubspaceRotationAdjust: set factor to 1.35
ElecMinimize: Iter:  22  G: -355.363336062097858  |grad|_K:  1.443e-06  alpha:  1.865e-01  linmin: -1.695e-06  t[s]:   5876.22
	FillingsUpdate:  mu: -0.070315958  nElectrons: 225.000000  magneticMoment: [ Abs: 0.70052  Tot: +0.55507 ]
	SubspaceRotationAdjust: set factor to 1.51
ElecMinimize: Iter:  23  G: -355.363428304986087  |grad|_K:  1.298e-06  alpha:  2.104e-01  linmin: -1.639e-06  t[s]:   5990.62
	FillingsUpdate:  mu: -0.070980107  nElectrons: 225.000000  magneticMoment: [ Abs: 0.70924  Tot: +0.55493 ]
	SubspaceRotationAdjust: set factor to 1.88
ElecMinimize: Iter:  24  G: -355.363502499844401  |grad|_K:  1.188e-06  alpha:  2.093e-01  linmin: -1.302e-07  t[s]:   6105.17
	FillingsUpdate:  mu: -0.069938111  nElectrons: 225.000000  magneticMoment: [ Abs: 0.71197  Tot: +0.55473 ]
	SubspaceRotationAdjust: set factor to 2.35
ElecMinimize: Iter:  25  G: -355.363557228690183  |grad|_K:  1.036e-06  alpha:  1.845e-01  linmin:  5.588e-07  t[s]:   6220.05
	FillingsUpdate:  mu: -0.070138171  nElectrons: 225.000000  magneticMoment: [ Abs: 0.70536  Tot: +0.55405 ]
	SubspaceRotationAdjust: set factor to 2.78
ElecMinimize: Iter:  26  G: -355.363597947201015  |grad|_K:  9.353e-07  alpha:  1.805e-01  linmin:  4.418e-06  t[s]:   6334.91
	FillingsUpdate:  mu: -0.070652396  nElectrons: 225.000000  magneticMoment: [ Abs: 0.69283  Tot: +0.55279 ]
	SubspaceRotationAdjust: set factor to 3.1
ElecMinimize: Iter:  27  G: -355.363630434231254  |grad|_K:  9.019e-07  alpha:  1.769e-01  linmin:  6.897e-06  t[s]:   6449.90
	FillingsUpdate:  mu: -0.069377429  nElectrons: 225.000000  magneticMoment: [ Abs: 0.68473  Tot: +0.55252 ]
	SubspaceRotationAdjust: set factor to 2.91
ElecMinimize: Iter:  28  G: -355.363651155609261  |grad|_K:  8.495e-07  alpha:  1.217e-01  linmin: -8.590e-08  t[s]:   6564.49
	FillingsUpdate:  mu: -0.070411605  nElectrons: 225.000000  magneticMoment: [ Abs: 0.67594  Tot: +0.55205 ]
	SubspaceRotationAdjust: set factor to 2.75
ElecMinimize: Iter:  29  G: -355.363667283183759  |grad|_K:  7.573e-07  alpha:  1.063e-01  linmin:  1.394e-06  t[s]:   6679.49
	FillingsUpdate:  mu: -0.069662136  nElectrons: 225.000000  magneticMoment: [ Abs: 0.67174  Tot: +0.55277 ]
	SubspaceRotationAdjust: set factor to 3.14
ElecMinimize: Iter:  30  G: -355.363682928860953  |grad|_K:  6.272e-07  alpha:  1.300e-01  linmin: -3.776e-06  t[s]:   6794.26
	FillingsUpdate:  mu: -0.069898235  nElectrons: 225.000000  magneticMoment: [ Abs: 0.66992  Tot: +0.55324 ]
	SubspaceRotationAdjust: set factor to 3.91
ElecMinimize: Iter:  31  G: -355.363696437673241  |grad|_K:  5.876e-07  alpha:  1.630e-01  linmin: -1.081e-06  t[s]:   6908.70
	FillingsUpdate:  mu: -0.069859282  nElectrons: 225.000000  magneticMoment: [ Abs: 0.67155  Tot: +0.55356 ]
	SubspaceRotationAdjust: set factor to 4.44
ElecMinimize: Iter:  32  G: -355.363707704435456  |grad|_K:  5.248e-07  alpha:  1.552e-01  linmin: -7.095e-07  t[s]:   7024.10
	FillingsUpdate:  mu: -0.069615432  nElectrons: 225.000000  magneticMoment: [ Abs: 0.67527  Tot: +0.55361 ]
	SubspaceRotationAdjust: set factor to 4.34
ElecMinimize: Iter:  33  G: -355.363715835678420  |grad|_K:  5.195e-07  alpha:  1.403e-01  linmin: -4.143e-07  t[s]:   7139.76
	FillingsUpdate:  mu: -0.070320386  nElectrons: 225.000000  magneticMoment: [ Abs: 0.67789  Tot: +0.55327 ]
	SubspaceRotationAdjust: set factor to 3.18
ElecMinimize: Iter:  34  G: -355.363722350956607  |grad|_K:  5.521e-07  alpha:  1.148e-01  linmin:  2.215e-07  t[s]:   7254.95
	FillingsUpdate:  mu: -0.069596106  nElectrons: 225.000000  magneticMoment: [ Abs: 0.68055  Tot: +0.55336 ]
	SubspaceRotationAdjust: set factor to 3.02
ElecMinimize: Iter:  35  G: -355.363726105244041  |grad|_K:  3.835e-07  alpha:  5.867e-02  linmin:  5.707e-07  t[s]:   7370.10
	FillingsUpdate:  mu: -0.069778096  nElectrons: 225.000000  magneticMoment: [ Abs: 0.68069  Tot: +0.55318 ]
	SubspaceRotationAdjust: set factor to 3.8
ElecMinimize: Iter:  36  G: -355.363730203296370  |grad|_K:  3.163e-07  alpha:  1.327e-01  linmin:  5.568e-07  t[s]:   7483.32
	FillingsUpdate:  mu: -0.070183406  nElectrons: 225.000000  magneticMoment: [ Abs: 0.67838  Tot: +0.55294 ]
	SubspaceRotationAdjust: set factor to 3.53
ElecMinimize: Iter:  37  G: -355.363733243994830  |grad|_K:  3.747e-07  alpha:  1.448e-01  linmin:  9.240e-07  t[s]:   7597.71
	FillingsUpdate:  mu: -0.069641045  nElectrons: 225.000000  magneticMoment: [ Abs: 0.67700  Tot: +0.55301 ]
	SubspaceRotationAdjust: set factor to 3.04
ElecMinimize: Iter:  38  G: -355.363735221272691  |grad|_K:  3.006e-07  alpha:  6.694e-02  linmin: -7.022e-07  t[s]:   7712.24
	FillingsUpdate:  mu: -0.069798502  nElectrons: 225.000000  magneticMoment: [ Abs: 0.67342  Tot: +0.55287 ]
	SubspaceRotationAdjust: set factor to 3.63
ElecMinimize: Iter:  39  G: -355.363737460341667  |grad|_K:  2.265e-07  alpha:  1.178e-01  linmin:  7.970e-07  t[s]:   7826.53
	FillingsUpdate:  mu: -0.070128727  nElectrons: 225.000000  magneticMoment: [ Abs: 0.67085  Tot: +0.55278 ]
	SubspaceRotationAdjust: set factor to 2.65
ElecMinimize: Iter:  40  G: -355.363738988328294  |grad|_K:  2.697e-07  alpha:  1.419e-01  linmin:  1.506e-06  t[s]:   7941.59
	FillingsUpdate:  mu: -0.069771149  nElectrons: 225.000000  magneticMoment: [ Abs: 0.67047  Tot: +0.55297 ]
	SubspaceRotationAdjust: set factor to 2.9
ElecMinimize: Iter:  41  G: -355.363739979192474  |grad|_K:  1.838e-07  alpha:  6.507e-02  linmin:  2.074e-06  t[s]:   8057.05
	FillingsUpdate:  mu: -0.069796695  nElectrons: 225.000000  magneticMoment: [ Abs: 0.67060  Tot: +0.55311 ]
	SubspaceRotationAdjust: set factor to 3.37
ElecMinimize: Iter:  42  G: -355.363741022529382  |grad|_K:  1.639e-07  alpha:  1.471e-01  linmin: -5.112e-07  t[s]:   8171.76
	FillingsUpdate:  mu: -0.070083721  nElectrons: 225.000000  magneticMoment: [ Abs: 0.67110  Tot: +0.55312 ]
	SubspaceRotationAdjust: set factor to 2.73
ElecMinimize: Iter:  43  G: -355.363741658224626  |grad|_K:  1.921e-07  alpha:  1.126e-01  linmin: -1.293e-07  t[s]:   8286.74
	FillingsUpdate:  mu: -0.069857954  nElectrons: 225.000000  magneticMoment: [ Abs: 0.67277  Tot: +0.55324 ]
	SubspaceRotationAdjust: set factor to 3.13
ElecMinimize: Iter:  44  G: -355.363742328072590  |grad|_K:  1.357e-07  alpha:  8.643e-02  linmin: -3.999e-07  t[s]:   8401.28
	FillingsUpdate:  mu: -0.069780575  nElectrons: 225.000000  magneticMoment: [ Abs: 0.67439  Tot: +0.55323 ]
	SubspaceRotationAdjust: set factor to 2.92
ElecMinimize: Iter:  45  G: -355.363742972245063  |grad|_K:  1.361e-07  alpha:  1.664e-01  linmin: -1.682e-07  t[s]:   8515.68
	FillingsUpdate:  mu: -0.069999717  nElectrons: 225.000000  magneticMoment: [ Abs: 0.67471  Tot: +0.55312 ]
	SubspaceRotationAdjust: set factor to 2.77
ElecMinimize: Iter:  46  G: -355.363743289155025  |grad|_K:  1.247e-07  alpha:  8.119e-02  linmin: -7.041e-07  t[s]:   8630.23
	FillingsUpdate:  mu: -0.069902186  nElectrons: 225.000000  magneticMoment: [ Abs: 0.67538  Tot: +0.55308 ]
	SubspaceRotationAdjust: set factor to 3.47
ElecMinimize: Iter:  47  G: -355.363743696256904  |grad|_K:  9.826e-08  alpha:  1.246e-01  linmin:  3.316e-07  t[s]:   8745.33
	FillingsUpdate:  mu: -0.069756750  nElectrons: 225.000000  magneticMoment: [ Abs: 0.67562  Tot: +0.55310 ]
	SubspaceRotationAdjust: set factor to 2.66
ElecMinimize: Iter:  48  G: -355.363743967696507  |grad|_K:  1.134e-07  alpha:  1.339e-01  linmin:  2.576e-07  t[s]:   8860.05
	FillingsUpdate:  mu: -0.069909089  nElectrons: 225.000000  magneticMoment: [ Abs: 0.67524  Tot: +0.55305 ]
	SubspaceRotationAdjust: set factor to 2.59
ElecMinimize: Iter:  49  G: -355.363744142518726  |grad|_K:  7.769e-08  alpha:  6.463e-02  linmin: -2.603e-07  t[s]:   8974.57
	FillingsUpdate:  mu: -0.069945407  nElectrons: 225.000000  magneticMoment: [ Abs: 0.67458  Tot: +0.55306 ]
	SubspaceRotationAdjust: set factor to 2.49
ElecMinimize: Iter:  50  G: -355.363744359080101  |grad|_K:  8.219e-08  alpha:  1.707e-01  linmin:  2.173e-07  t[s]:   9089.21
	FillingsUpdate:  mu: -0.069806673  nElectrons: 225.000000  magneticMoment: [ Abs: 0.67428  Tot: +0.55312 ]
	SubspaceRotationAdjust: set factor to 2.55
ElecMinimize: Iter:  51  G: -355.363744490580928  |grad|_K:  7.611e-08  alpha:  9.271e-02  linmin:  5.529e-08  t[s]:   9204.10
	FillingsUpdate:  mu: -0.069845535  nElectrons: 225.000000  magneticMoment: [ Abs: 0.67363  Tot: +0.55312 ]
	SubspaceRotationAdjust: set factor to 3.4
ElecMinimize: Iter:  52  G: -355.363744646370662  |grad|_K:  5.891e-08  alpha:  1.280e-01  linmin:  1.277e-07  t[s]:   9318.90
	FillingsUpdate:  mu: -0.069949360  nElectrons: 225.000000  magneticMoment: [ Abs: 0.67334  Tot: +0.55310 ]
	SubspaceRotationAdjust: set factor to 2.8
ElecMinimize: Iter:  53  G: -355.363744726892264  |grad|_K:  6.763e-08  alpha:  1.104e-01  linmin: -1.524e-07  t[s]:   9434.43
	FillingsUpdate:  mu: -0.069873620  nElectrons: 225.000000  magneticMoment: [ Abs: 0.67349  Tot: +0.55313 ]
	SubspaceRotationAdjust: set factor to 2.99
ElecMinimize: Iter:  54  G: -355.363744802992358  |grad|_K:  4.593e-08  alpha:  7.920e-02  linmin: -1.690e-09  t[s]:   9549.52
ElecMinimize: Converged (|Delta G|<1.000000e-07 for 2 iters).
Setting wave functions to eigenvectors of Hamiltonian
Converging empty states (this may take a while): |deigs|: 8.505e-03
Vacuum energy after initial minimize, F = -355.363744802992358

Shifting auxilliary hamiltonian by -0.075626 to set nElectrons=225.000000

-------- Electronic minimization -----------
	Linear fluid (dielectric constant: 78.4, screening length: 8.12261 Bohr) occupying 0.719971 of unit cell:	Completed after 23 iterations at t[s]:  10056.48
	FillingsUpdate:  mu: -0.145500000  nElectrons: 225.000000  magneticMoment: [ Abs: 0.67397  Tot: +0.55311 ]
ElecMinimize: Iter:   0  G: -355.364078505453733  |grad|_K:  1.535e-05  alpha:  1.000e+00
	Linear fluid (dielectric constant: 78.4, screening length: 8.12261 Bohr) occupying 0.721319 of unit cell:	Completed after 22 iterations at t[s]:  10170.16
	Linear fluid (dielectric constant: 78.4, screening length: 8.12261 Bohr) occupying 0.720165 of unit cell:	Completed after 21 iterations at t[s]:  10220.34
ElecMinimize: 	Step increased G by 2.603102e-02, reducing alpha to 2.075580e-02.
	Linear fluid (dielectric constant: 78.4, screening length: 8.12261 Bohr) occupying 0.719918 of unit cell:	Completed after 19 iterations at t[s]:  10316.47
ElecMinimize: 	Step increased G by 3.718591e-04, reducing alpha to 2.075580e-03.
	Linear fluid (dielectric constant: 78.4, screening length: 8.12261 Bohr) occupying 0.719962 of unit cell:	Completed after 17 iterations at t[s]:  10411.13
	FillingsUpdate:  mu: -0.145500000  nElectrons: 224.985460  magneticMoment: [ Abs: 0.66149  Tot: +0.53875 ]
	SubspaceRotationAdjust: set factor to 1.56
ElecMinimize: Iter:   1  G: -355.364257704631427  |grad|_K:  1.212e-05  alpha:  2.076e-03  linmin: -1.356e-02  t[s]:  10461.63
	Linear fluid (dielectric constant: 78.4, screening length: 8.12261 Bohr) occupying 0.719953 of unit cell:	Completed after 11 iterations at t[s]:  10510.66
	Linear fluid (dielectric constant: 78.4, screening length: 8.12261 Bohr) occupying 0.719940 of unit cell:	Completed after 14 iterations at t[s]:  10556.31
	FillingsUpdate:  mu: -0.145500000  nElectrons: 224.928929  magneticMoment: [ Abs: 0.61363  Tot: +0.48288 ]
	SubspaceRotationAdjust: set factor to 0.928
ElecMinimize: Iter:   2  G: -355.364566348151584  |grad|_K:  6.956e-06  alpha:  5.770e-03  linmin:  4.769e-04  t[s]:  10606.34
	Linear fluid (dielectric constant: 78.4, screening length: 8.12261 Bohr) occupying 0.719947 of unit cell:	Completed after 10 iterations at t[s]:  10654.84
ElecMinimize: 	Predicted alpha/alphaT>3.000000, increasing alphaT to 1.730964e-02.
	Linear fluid (dielectric constant: 78.4, screening length: 8.12261 Bohr) occupying 0.719961 of unit cell:	Completed after 11 iterations at t[s]:  10698.31
	Linear fluid (dielectric constant: 78.4, screening length: 8.12261 Bohr) occupying 0.719973 of unit cell:	Completed after 12 iterations at t[s]:  10742.32
	FillingsUpdate:  mu: -0.145500000  nElectrons: 224.866506  magneticMoment: [ Abs: 0.56697  Tot: +0.42147 ]
	SubspaceRotationAdjust: set factor to 0.51
ElecMinimize: Iter:   3  G: -355.364811550838567  |grad|_K:  1.068e-05  alpha:  2.623e-02  linmin: -2.888e-05  t[s]:  10793.02
	Linear fluid (dielectric constant: 78.4, screening length: 8.12261 Bohr) occupying 0.720119 of unit cell:	Completed after 13 iterations at t[s]:  10843.67
	Linear fluid (dielectric constant: 78.4, screening length: 8.12261 Bohr) occupying 0.720375 of unit cell:	Completed after 15 iterations at t[s]:  10889.71
	FillingsUpdate:  mu: -0.145500000  nElectrons: 224.679609  magneticMoment: [ Abs: 0.48865  Tot: +0.25777 ]
	SubspaceRotationAdjust: set factor to 0.291
	SubspaceRotationAdjust: resetting CG because factor has changed by 0.0972531
	Linear fluid (dielectric constant: 78.4, screening length: 8.12261 Bohr) occupying 0.720375 of unit cell:	Completed after 0 iterations at t[s]:  10962.70
ElecMinimize: 	State modified externally: resetting search direction.
ElecMinimize: Iter:   4  G: -355.366928253985975  |grad|_K:  6.416e-06  alpha:  7.208e-02
	Linear fluid (dielectric constant: 78.4, screening length: 8.12261 Bohr) occupying 0.720452 of unit cell:	Completed after 15 iterations at t[s]:  11064.72
	Linear fluid (dielectric constant: 78.4, screening length: 8.12261 Bohr) occupying 0.720460 of unit cell:	Completed after 8 iterations at t[s]:  11106.52
	FillingsUpdate:  mu: -0.145500000  nElectrons: 224.742592  magneticMoment: [ Abs: 0.54155  Tot: +0.31791 ]
	SubspaceRotationAdjust: set factor to 0.112
ElecMinimize: Iter:   5  G: -355.367602215917998  |grad|_K:  2.826e-06  alpha:  7.848e-02  linmin:  2.490e-03  t[s]:  11156.78
	Linear fluid (dielectric constant: 78.4, screening length: 8.12261 Bohr) occupying 0.720517 of unit cell:	Completed after 7 iterations at t[s]:  11203.78
ElecMinimize: 	Predicted alpha/alphaT>3.000000, increasing alphaT to 2.354383e-01.
	Linear fluid (dielectric constant: 78.4, screening length: 8.12261 Bohr) occupying 0.720631 of unit cell:	Completed after 9 iterations at t[s]:  11245.86
	Linear fluid (dielectric constant: 78.4, screening length: 8.12261 Bohr) occupying 0.720891 of unit cell:	Completed after 13 iterations at t[s]:  11290.73
	FillingsUpdate:  mu: -0.145500000  nElectrons: 224.733047  magneticMoment: [ Abs: 0.51680  Tot: +0.30091 ]
	SubspaceRotationAdjust: set factor to 0.0799
ElecMinimize: Iter:   6  G: -355.368553915278824  |grad|_K:  1.862e-06  alpha:  5.942e-01  linmin: -1.316e-04  t[s]:  11340.99
	Linear fluid (dielectric constant: 78.4, screening length: 8.12261 Bohr) occupying 0.721286 of unit cell:	Completed after 14 iterations at t[s]:  11391.86
	Linear fluid (dielectric constant: 78.4, screening length: 8.12261 Bohr) occupying 0.721180 of unit cell:	Completed after 10 iterations at t[s]:  11435.03
	FillingsUpdate:  mu: -0.145500000  nElectrons: 224.748602  magneticMoment: [ Abs: 0.52435  Tot: +0.31442 ]
	SubspaceRotationAdjust: set factor to 0.0606
ElecMinimize: Iter:   7  G: -355.368874115337178  |grad|_K:  1.518e-06  alpha:  4.352e-01  linmin: -3.475e-05  t[s]:  11485.84
	Linear fluid (dielectric constant: 78.4, screening length: 8.12261 Bohr) occupying 0.721404 of unit cell:	Completed after 13 iterations at t[s]:  11536.42
	Linear fluid (dielectric constant: 78.4, screening length: 8.12261 Bohr) occupying 0.721404 of unit cell:	Completed after 0 iterations at t[s]:  11572.47
	FillingsUpdate:  mu: -0.145500000  nElectrons: 224.721230  magneticMoment: [ Abs: 0.49592  Tot: +0.28638 ]
	SubspaceRotationAdjust: set factor to 0.0437
ElecMinimize: Iter:   8  G: -355.369084982945196  |grad|_K:  7.085e-07  alpha:  4.348e-01  linmin: -2.626e-04  t[s]:  11622.46
	Linear fluid (dielectric constant: 78.4, screening length: 8.12261 Bohr) occupying 0.721462 of unit cell:	Completed after 4 iterations at t[s]:  11667.17
	Linear fluid (dielectric constant: 78.4, screening length: 8.12261 Bohr) occupying 0.721500 of unit cell:	Completed after 4 iterations at t[s]:  11706.26
	FillingsUpdate:  mu: -0.145500000  nElectrons: 224.717294  magneticMoment: [ Abs: 0.48983  Tot: +0.28229 ]
	SubspaceRotationAdjust: set factor to 0.0557
ElecMinimize: Iter:   9  G: -355.369162656945036  |grad|_K:  4.761e-07  alpha:  7.289e-01  linmin: -9.722e-05  t[s]:  11756.61
	Linear fluid (dielectric constant: 78.4, screening length: 8.12261 Bohr) occupying 0.721527 of unit cell:	Completed after 7 iterations at t[s]:  11803.53
	Linear fluid (dielectric constant: 78.4, screening length: 8.12261 Bohr) occupying 0.721520 of unit cell:	Completed after 3 iterations at t[s]:  11841.79
	FillingsUpdate:  mu: -0.145500000  nElectrons: 224.717142  magneticMoment: [ Abs: 0.48840  Tot: +0.28212 ]
	SubspaceRotationAdjust: set factor to 0.0598
ElecMinimize: Iter:  10  G: -355.369187800140651  |grad|_K:  3.893e-07  alpha:  5.265e-01  linmin: -8.619e-05  t[s]:  11891.93
	Linear fluid (dielectric constant: 78.4, screening length: 8.12261 Bohr) occupying 0.721517 of unit cell:	Completed after 7 iterations at t[s]:  11938.73
	Linear fluid (dielectric constant: 78.4, screening length: 8.12261 Bohr) occupying 0.721516 of unit cell:	Completed after 4 iterations at t[s]:  11977.86
	FillingsUpdate:  mu: -0.145500000  nElectrons: 224.706813  magneticMoment: [ Abs: 0.47755  Tot: +0.27194 ]
	SubspaceRotationAdjust: set factor to 0.0634
ElecMinimize: Iter:  11  G: -355.369213069708053  |grad|_K:  3.138e-07  alpha:  7.854e-01  linmin: -2.401e-04  t[s]:  12028.42
	Linear fluid (dielectric constant: 78.4, screening length: 8.12261 Bohr) occupying 0.721515 of unit cell:	Completed after 3 iterations at t[s]:  12072.70
	Linear fluid (dielectric constant: 78.4, screening length: 8.12261 Bohr) occupying 0.721515 of unit cell:	Completed after 2 iterations at t[s]:  12110.20
	FillingsUpdate:  mu: -0.145500000  nElectrons: 224.703240  magneticMoment: [ Abs: 0.47227  Tot: +0.26846 ]
	SubspaceRotationAdjust: set factor to 0.0695
ElecMinimize: Iter:  12  G: -355.369233906641625  |grad|_K:  3.736e-07  alpha:  9.881e-01  linmin: -3.332e-05  t[s]:  12160.57
	Linear fluid (dielectric constant: 78.4, screening length: 8.12261 Bohr) occupying 0.721520 of unit cell:	Completed after 8 iterations at t[s]:  12208.25
	Linear fluid (dielectric constant: 78.4, screening length: 8.12261 Bohr) occupying 0.721519 of unit cell:	Completed after 3 iterations at t[s]:  12246.67
	FillingsUpdate:  mu: -0.145500000  nElectrons: 224.694412  magneticMoment: [ Abs: 0.46173  Tot: +0.25973 ]
	SubspaceRotationAdjust: set factor to 0.0789
ElecMinimize: Iter:  13  G: -355.369255768102562  |grad|_K:  3.578e-07  alpha:  7.437e-01  linmin: -1.833e-05  t[s]:  12296.56
	Linear fluid (dielectric constant: 78.4, screening length: 8.12261 Bohr) occupying 0.721539 of unit cell:	Completed after 7 iterations at t[s]:  12343.23
	Linear fluid (dielectric constant: 78.4, screening length: 8.12261 Bohr) occupying 0.721544 of unit cell:	Completed after 3 iterations at t[s]:  12381.42
	FillingsUpdate:  mu: -0.145500000  nElectrons: 224.682494  magneticMoment: [ Abs: 0.44699  Tot: +0.24774 ]
	SubspaceRotationAdjust: set factor to 0.0855
ElecMinimize: Iter:  14  G: -355.369281688909268  |grad|_K:  3.230e-07  alpha:  9.605e-01  linmin: -2.839e-06  t[s]:  12432.02
	Linear fluid (dielectric constant: 78.4, screening length: 8.12261 Bohr) occupying 0.721581 of unit cell:	Completed after 7 iterations at t[s]:  12478.88
	Linear fluid (dielectric constant: 78.4, screening length: 8.12261 Bohr) occupying 0.721577 of unit cell:	Completed after 2 iterations at t[s]:  12516.37
	FillingsUpdate:  mu: -0.145500000  nElectrons: 224.675944  magneticMoment: [ Abs: 0.43683  Tot: +0.24078 ]
	SubspaceRotationAdjust: set factor to 0.0897
ElecMinimize: Iter:  15  G: -355.369300174353100  |grad|_K:  2.830e-07  alpha:  8.432e-01  linmin:  1.627e-07  t[s]:  12566.84
	Linear fluid (dielectric constant: 78.4, screening length: 8.12261 Bohr) occupying 0.721611 of unit cell:	Completed after 3 iterations at t[s]:  12611.09
	Linear fluid (dielectric constant: 78.4, screening length: 8.12261 Bohr) occupying 0.721603 of unit cell:	Completed after 2 iterations at t[s]:  12648.58
	FillingsUpdate:  mu: -0.145500000  nElectrons: 224.671420  magneticMoment: [ Abs: 0.42901  Tot: +0.23572 ]
	SubspaceRotationAdjust: set factor to 0.0953
ElecMinimize: Iter:  16  G: -355.369311274439042  |grad|_K:  2.000e-07  alpha:  6.609e-01  linmin:  1.306e-05  t[s]:  12699.24
	Linear fluid (dielectric constant: 78.4, screening length: 8.12261 Bohr) occupying 0.721622 of unit cell:	Completed after 2 iterations at t[s]:  12742.79
	Linear fluid (dielectric constant: 78.4, screening length: 8.12261 Bohr) occupying 0.721622 of unit cell:	Completed after 0 iterations at t[s]:  12778.35
	FillingsUpdate:  mu: -0.145500000  nElectrons: 224.670336  magneticMoment: [ Abs: 0.42485  Tot: +0.23408 ]
	SubspaceRotationAdjust: set factor to 0.0999
ElecMinimize: Iter:  17  G: -355.369316849777931  |grad|_K:  1.665e-07  alpha:  6.645e-01  linmin: -1.705e-05  t[s]:  12828.85
	Linear fluid (dielectric constant: 78.4, screening length: 8.12261 Bohr) occupying 0.721634 of unit cell:	Completed after 4 iterations at t[s]:  12873.76
	Linear fluid (dielectric constant: 78.4, screening length: 8.12261 Bohr) occupying 0.721631 of unit cell:	Completed after 2 iterations at t[s]:  12911.33
	FillingsUpdate:  mu: -0.145500000  nElectrons: 224.667971  magneticMoment: [ Abs: 0.42025  Tot: +0.23127 ]
	SubspaceRotationAdjust: set factor to 0.0853
ElecMinimize: Iter:  18  G: -355.369319613705443  |grad|_K:  1.360e-07  alpha:  4.769e-01  linmin:  5.011e-05  t[s]:  12961.82
	Linear fluid (dielectric constant: 78.4, screening length: 8.12261 Bohr) occupying 0.721639 of unit cell:	Completed after 3 iterations at t[s]:  13005.94
	Linear fluid (dielectric constant: 78.4, screening length: 8.12261 Bohr) occupying 0.721639 of unit cell:	Completed after 0 iterations at t[s]:  13041.57
	FillingsUpdate:  mu: -0.145500000  nElectrons: 224.669818  magneticMoment: [ Abs: 0.41922  Tot: +0.23261 ]
	SubspaceRotationAdjust: set factor to 0.0747
ElecMinimize: Iter:  19  G: -355.369321508000439  |grad|_K:  9.982e-08  alpha:  4.901e-01  linmin: -5.687e-05  t[s]:  13092.03
	Linear fluid (dielectric constant: 78.4, screening length: 8.12261 Bohr) occupying 0.721641 of unit cell:	Completed after 1 iterations at t[s]:  13134.88
	Linear fluid (dielectric constant: 78.4, screening length: 8.12261 Bohr) occupying 0.721642 of unit cell:	Completed after 0 iterations at t[s]:  13171.27
	FillingsUpdate:  mu: -0.145500000  nElectrons: 224.669972  magneticMoment: [ Abs: 0.41658  Tot: +0.23228 ]
	SubspaceRotationAdjust: set factor to 0.0983
ElecMinimize: Iter:  20  G: -355.369322853138726  |grad|_K:  7.971e-08  alpha:  6.311e-01  linmin: -1.534e-04  t[s]:  13221.38
	Linear fluid (dielectric constant: 78.4, screening length: 8.12261 Bohr) occupying 0.721641 of unit cell:	Completed after 2 iterations at t[s]:  13264.89
	Linear fluid (dielectric constant: 78.4, screening length: 8.12261 Bohr) occupying 0.721641 of unit cell:	Completed after 0 iterations at t[s]:  13300.81
	FillingsUpdate:  mu: -0.145500000  nElectrons: 224.669645  magneticMoment: [ Abs: 0.41386  Tot: +0.23156 ]
	SubspaceRotationAdjust: set factor to 0.101
ElecMinimize: Iter:  21  G: -355.369323706134765  |grad|_K:  7.495e-08  alpha:  6.152e-01  linmin: -1.041e-04  t[s]:  13351.25
	Linear fluid (dielectric constant: 78.4, screening length: 8.12261 Bohr) occupying 0.721639 of unit cell:	Completed after 3 iterations at t[s]:  13395.37
	Linear fluid (dielectric constant: 78.4, screening length: 8.12261 Bohr) occupying 0.721640 of unit cell:	Completed after 1 iterations at t[s]:  13432.58
	FillingsUpdate:  mu: -0.145500000  nElectrons: 224.670913  magneticMoment: [ Abs: 0.41300  Tot: +0.23252 ]
	SubspaceRotationAdjust: set factor to 0.0909
ElecMinimize: Iter:  22  G: -355.369324211348214  |grad|_K:  7.370e-08  alpha:  4.172e-01  linmin:  9.515e-05  t[s]:  13482.60
	Linear fluid (dielectric constant: 78.4, screening length: 8.12261 Bohr) occupying 0.721637 of unit cell:	Completed after 2 iterations at t[s]:  13526.04
	Linear fluid (dielectric constant: 78.4, screening length: 8.12261 Bohr) occupying 0.721636 of unit cell:	Completed after 0 iterations at t[s]:  13561.96
	FillingsUpdate:  mu: -0.145500000  nElectrons: 224.671391  magneticMoment: [ Abs: 0.41022  Tot: +0.23255 ]
	SubspaceRotationAdjust: set factor to 0.125
ElecMinimize: Iter:  23  G: -355.369324845770279  |grad|_K:  5.529e-08  alpha:  5.618e-01  linmin: -1.947e-04  t[s]:  13611.98
	Linear fluid (dielectric constant: 78.4, screening length: 8.12261 Bohr) occupying 0.721632 of unit cell:	Completed after 2 iterations at t[s]:  13655.46
	Linear fluid (dielectric constant: 78.4, screening length: 8.12261 Bohr) occupying 0.721633 of unit cell:	Completed after 0 iterations at t[s]:  13691.14
	FillingsUpdate:  mu: -0.145500000  nElectrons: 224.671275  magneticMoment: [ Abs: 0.40842  Tot: +0.23223 ]
	SubspaceRotationAdjust: set factor to 0.106
ElecMinimize: Iter:  24  G: -355.369325132805500  |grad|_K:  8.261e-08  alpha:  4.212e-01  linmin:  1.070e-04  t[s]:  13741.14
	Linear fluid (dielectric constant: 78.4, screening length: 8.12261 Bohr) occupying 0.721629 of unit cell:	Completed after 3 iterations at t[s]:  13785.24
	Linear fluid (dielectric constant: 78.4, screening length: 8.12261 Bohr) occupying 0.721631 of unit cell:	Completed after 1 iterations at t[s]:  13822.41
	FillingsUpdate:  mu: -0.145500000  nElectrons: 224.672359  magneticMoment: [ Abs: 0.40708  Tot: +0.23303 ]
	SubspaceRotationAdjust: set factor to 0.107
ElecMinimize: Iter:  25  G: -355.369325419008248  |grad|_K:  5.352e-08  alpha:  2.332e-01  linmin:  2.300e-05  t[s]:  13872.61
	Linear fluid (dielectric constant: 78.4, screening length: 8.12261 Bohr) occupying 0.721630 of unit cell:	Completed after 0 iterations at t[s]:  13914.31
	Linear fluid (dielectric constant: 78.4, screening length: 8.12261 Bohr) occupying 0.721628 of unit cell:	Completed after 2 iterations at t[s]:  13952.07
	FillingsUpdate:  mu: -0.145500000  nElectrons: 224.673408  magneticMoment: [ Abs: 0.40512  Tot: +0.23377 ]
	SubspaceRotationAdjust: set factor to 0.114
ElecMinimize: Iter:  26  G: -355.369325676125641  |grad|_K:  6.307e-08  alpha:  6.192e-01  linmin:  4.169e-04  t[s]:  14002.36
	Linear fluid (dielectric constant: 78.4, screening length: 8.12261 Bohr) occupying 0.721623 of unit cell:	Completed after 3 iterations at t[s]:  14046.69
	Linear fluid (dielectric constant: 78.4, screening length: 8.12261 Bohr) occupying 0.721626 of unit cell:	Completed after 1 iterations at t[s]:  14083.65
	FillingsUpdate:  mu: -0.145500000  nElectrons: 224.673155  magneticMoment: [ Abs: 0.40301  Tot: +0.23334 ]
	SubspaceRotationAdjust: set factor to 0.116
ElecMinimize: Iter:  27  G: -355.369325848837548  |grad|_K:  4.592e-08  alpha:  2.752e-01  linmin:  7.432e-05  t[s]:  14134.12
	Linear fluid (dielectric constant: 78.4, screening length: 8.12261 Bohr) occupying 0.721625 of unit cell:	Completed after 1 iterations at t[s]:  14176.97
	Linear fluid (dielectric constant: 78.4, screening length: 8.12261 Bohr) occupying 0.721625 of unit cell:	Completed after 0 iterations at t[s]:  14212.69
	FillingsUpdate:  mu: -0.145500000  nElectrons: 224.672984  magneticMoment: [ Abs: 0.40144  Tot: +0.23305 ]
	SubspaceRotationAdjust: set factor to 0.132
ElecMinimize: Iter:  28  G: -355.369326013423006  |grad|_K:  3.028e-08  alpha:  3.688e-01  linmin: -3.979e-04  t[s]:  14262.54
	Linear fluid (dielectric constant: 78.4, screening length: 8.12261 Bohr) occupying 0.721625 of unit cell:	Completed after 0 iterations at t[s]:  14304.33
	Linear fluid (dielectric constant: 78.4, screening length: 8.12261 Bohr) occupying 0.721625 of unit cell:	Completed after 0 iterations at t[s]:  14340.04
	FillingsUpdate:  mu: -0.145500000  nElectrons: 224.673161  magneticMoment: [ Abs: 0.40045  Tot: +0.23316 ]
	SubspaceRotationAdjust: set factor to 0.157
ElecMinimize: Iter:  29  G: -355.369326152993779  |grad|_K:  2.988e-08  alpha:  6.276e-01  linmin:  1.540e-06  t[s]:  14389.91
	Linear fluid (dielectric constant: 78.4, screening length: 8.12261 Bohr) occupying 0.721627 of unit cell:	Completed after 2 iterations at t[s]:  14434.88
	Linear fluid (dielectric constant: 78.4, screening length: 8.12261 Bohr) occupying 0.721626 of unit cell:	Completed after 0 iterations at t[s]:  14471.17
	FillingsUpdate:  mu: -0.145500000  nElectrons: 224.673372  magneticMoment: [ Abs: 0.40009  Tot: +0.23336 ]
	SubspaceRotationAdjust: set factor to 0.134
ElecMinimize: Iter:  30  G: -355.369326194033533  |grad|_K:  4.458e-08  alpha:  3.024e-01  linmin:  3.013e-04  t[s]:  14521.52
	Linear fluid (dielectric constant: 78.4, screening length: 8.12261 Bohr) occupying 0.721627 of unit cell:	Completed after 1 iterations at t[s]:  14564.51
	Linear fluid (dielectric constant: 78.4, screening length: 8.12261 Bohr) occupying 0.721627 of unit cell:	Completed after 0 iterations at t[s]:  14600.73
	FillingsUpdate:  mu: -0.145500000  nElectrons: 224.673099  magneticMoment: [ Abs: 0.39923  Tot: +0.23307 ]
	SubspaceRotationAdjust: set factor to 0.196
ElecMinimize: Iter:  31  G: -355.369326230598290  |grad|_K:  2.839e-08  alpha:  1.536e-01  linmin: -1.336e-05  t[s]:  14651.34
ElecMinimize: Converged (|Delta G|<1.000000e-07 for 2 iters).
Setting wave functions to eigenvectors of Hamiltonian
Converging empty states (this may take a while): |deigs|: 6.892e-04
Single-point solvation energy estimate, DeltaG = -0.005581427605932

Computing DFT-D3 correction:
# coordination-number C 3.300 3.321 3.334 3.332 3.312 3.289 3.320 3.588 3.329 3.313 3.302 3.325 3.304 3.301 3.324 3.602 3.269 3.301 3.319 3.334 3.326 3.301 3.300 3.326 3.334 3.319 3.300 3.266 3.588 3.324 3.301 3.304 3.328 3.302 3.313 3.329 3.614 3.327 3.290 3.312 3.332 3.334 3.321 3.300 3.012
# coordination-number N 3.179 3.178 3.174 3.179
# coordination-number Ti 7.460
# coordination-number O 2.022 1.991
# coordination-number H 1.008
# diagonal-C6 C 24.29 24.07 23.93 23.96 24.16 24.38 24.08 20.42 23.98 24.15 24.27 24.03 24.24 24.27 24.04 20.25 24.56 24.28 24.09 23.93 24.02 24.27 24.28 24.01 23.93 24.09 24.28 24.58 20.42 24.04 24.27 24.24 24.00 24.27 24.15 23.98 20.11 24.00 24.37 24.16 23.96 23.93 24.07 24.28 25.65
# diagonal-C6 N 15.60 15.60 15.60 15.60
# diagonal-C6 Ti 321.59
# diagonal-C6 O 10.40 10.41
# diagonal-C6 H 3.09
EvdW_6 =   -0.040347
EvdW_8 =   -0.032121
Completed 1 of 13 configurations.

Computing DFT-D3 correction:
# coordination-number C 3.300 3.321 3.334 3.332 3.312 3.289 3.320 3.588 3.329 3.313 3.302 3.325 3.304 3.301 3.324 3.602 3.269 3.301 3.319 3.334 3.326 3.301 3.300 3.326 3.334 3.319 3.300 3.266 3.588 3.324 3.301 3.304 3.328 3.302 3.313 3.329 3.614 3.327 3.290 3.312 3.332 3.334 3.321 3.300 3.012
# coordination-number N 3.179 3.178 3.174 3.179
# coordination-number Ti 7.460
# coordination-number O 2.022 1.991
# coordination-number H 1.008
# diagonal-C6 C 24.29 24.07 23.93 23.96 24.16 24.38 24.08 20.42 23.98 24.15 24.27 24.03 24.24 24.27 24.04 20.25 24.56 24.28 24.09 23.93 24.02 24.27 24.28 24.01 23.93 24.09 24.28 24.58 20.42 24.04 24.27 24.24 24.00 24.27 24.15 23.98 20.11 24.00 24.37 24.16 23.96 23.93 24.07 24.28 25.65
# diagonal-C6 N 15.60 15.60 15.60 15.60
# diagonal-C6 Ti 321.59
# diagonal-C6 O 10.40 10.41
# diagonal-C6 H 3.09
EvdW_6 =   -0.040347
EvdW_8 =   -0.032122
Shifting auxilliary hamiltonian by -0.000037 to set nElectrons=224.673099

-------- Electronic minimization -----------
	Linear fluid (dielectric constant: 78.4, screening length: 8.12261 Bohr) occupying 0.721624 of unit cell:	Completed after 6 iterations at t[s]:  16008.43
	FillingsUpdate:  mu: -0.145500000  nElectrons: 224.673099  magneticMoment: [ Abs: 0.39934  Tot: +0.23334 ]
ElecMinimize: Iter:   0  G: -355.369275263868985  |grad|_K:  4.206e-07  alpha:  1.000e+00
	Linear fluid (dielectric constant: 78.4, screening length: 8.12261 Bohr) occupying 0.721618 of unit cell:	Completed after 10 iterations at t[s]:  16113.59
	Linear fluid (dielectric constant: 78.4, screening length: 8.12261 Bohr) occupying 0.721621 of unit cell:	Completed after 8 iterations at t[s]:  16155.23
	FillingsUpdate:  mu: -0.145500000  nElectrons: 224.667377  magneticMoment: [ Abs: 0.39421  Tot: +0.22764 ]
	SubspaceRotationAdjust: set factor to 0.126
ElecMinimize: Iter:   1  G: -355.369291275146168  |grad|_K:  4.864e-07  alpha:  4.326e-01  linmin:  1.565e-04  t[s]:  16205.27
	Linear fluid (dielectric constant: 78.4, screening length: 8.12261 Bohr) occupying 0.721631 of unit cell:	Completed after 11 iterations at t[s]:  16254.41
	Linear fluid (dielectric constant: 78.4, screening length: 8.12261 Bohr) occupying 0.721625 of unit cell:	Completed after 8 iterations at t[s]:  16296.04
	FillingsUpdate:  mu: -0.145500000  nElectrons: 224.671786  magneticMoment: [ Abs: 0.39803  Tot: +0.23201 ]
	SubspaceRotationAdjust: set factor to 0.0871
ElecMinimize: Iter:   2  G: -355.369299394556492  |grad|_K:  1.483e-07  alpha:  1.637e-01  linmin: -3.261e-05  t[s]:  16345.95
	Linear fluid (dielectric constant: 78.4, screening length: 8.12261 Bohr) occupying 0.721625 of unit cell:	Completed after 2 iterations at t[s]:  16389.29
ElecMinimize: 	Predicted alpha/alphaT>3.000000, increasing alphaT to 4.911778e-01.
	Linear fluid (dielectric constant: 78.4, screening length: 8.12261 Bohr) occupying 0.721625 of unit cell:	Completed after 2 iterations at t[s]:  16426.49
	Linear fluid (dielectric constant: 78.4, screening length: 8.12261 Bohr) occupying 0.721624 of unit cell:	Completed after 1 iterations at t[s]:  16463.11
	FillingsUpdate:  mu: -0.145500000  nElectrons: 224.671963  magneticMoment: [ Abs: 0.39814  Tot: +0.23218 ]
	SubspaceRotationAdjust: set factor to 0.114
ElecMinimize: Iter:   3  G: -355.369302793215525  |grad|_K:  1.009e-07  alpha:  7.252e-01  linmin: -3.664e-04  t[s]:  16512.94
	Linear fluid (dielectric constant: 78.4, screening length: 8.12261 Bohr) occupying 0.721622 of unit cell:	Completed after 4 iterations at t[s]:  16557.66
	Linear fluid (dielectric constant: 78.4, screening length: 8.12261 Bohr) occupying 0.721623 of unit cell:	Completed after 2 iterations at t[s]:  16594.64
	FillingsUpdate:  mu: -0.145500000  nElectrons: 224.670338  magneticMoment: [ Abs: 0.39666  Tot: +0.23057 ]
	SubspaceRotationAdjust: set factor to 0.0936
ElecMinimize: Iter:   4  G: -355.369303804244964  |grad|_K:  9.627e-08  alpha:  4.641e-01  linmin:  9.446e-05  t[s]:  16644.55
	Linear fluid (dielectric constant: 78.4, screening length: 8.12261 Bohr) occupying 0.721624 of unit cell:	Completed after 2 iterations at t[s]:  16687.73
	Linear fluid (dielectric constant: 78.4, screening length: 8.12261 Bohr) occupying 0.721624 of unit cell:	Completed after 0 iterations at t[s]:  16722.96
	FillingsUpdate:  mu: -0.145500000  nElectrons: 224.671038  magneticMoment: [ Abs: 0.39722  Tot: +0.23126 ]
	SubspaceRotationAdjust: set factor to 0.0755
ElecMinimize: Iter:   5  G: -355.369304549829906  |grad|_K:  5.394e-08  alpha:  3.805e-01  linmin:  5.607e-04  t[s]:  16772.77
	Linear fluid (dielectric constant: 78.4, screening length: 8.12261 Bohr) occupying 0.721624 of unit cell:	Completed after 2 iterations at t[s]:  16816.12
	Linear fluid (dielectric constant: 78.4, screening length: 8.12261 Bohr) occupying 0.721624 of unit cell:	Completed after 0 iterations at t[s]:  16851.34
	FillingsUpdate:  mu: -0.145500000  nElectrons: 224.670457  magneticMoment: [ Abs: 0.39663  Tot: +0.23067 ]
	SubspaceRotationAdjust: set factor to 0.0972
ElecMinimize: Iter:   6  G: -355.369304904878504  |grad|_K:  3.568e-08  alpha:  5.464e-01  linmin: -1.848e-03  t[s]:  16901.39
	Linear fluid (dielectric constant: 78.4, screening length: 8.12261 Bohr) occupying 0.721625 of unit cell:	Completed after 0 iterations at t[s]:  16942.79
	Linear fluid (dielectric constant: 78.4, screening length: 8.12261 Bohr) occupying 0.721626 of unit cell:	Completed after 2 iterations at t[s]:  16980.03
	FillingsUpdate:  mu: -0.145500000  nElectrons: 224.670506  magneticMoment: [ Abs: 0.39649  Tot: +0.23070 ]
	SubspaceRotationAdjust: set factor to 0.103
[...]
disp C   0.000000000000000   0.000000000000000   0.000000000000000
disp C   0.000000000000000   0.000000000000000   0.000000000000000
disp C   0.000000000000000   0.000000000000000   0.000000000000000
disp C   0.000000000000000   0.000000000000000   0.000000000000000
disp C   0.000000000000000   0.000000000000000   0.000000000000000
disp C   0.000000000000000   0.000000000000000   0.000000000000000
disp C   0.000000000000000   0.000000000000000   0.000000000000000
disp C   0.000000000000000   0.000000000000000   0.000000000000000
disp C   0.000000000000000   0.000000000000000   0.000000000000000
disp C   0.000000000000000   0.000000000000000   0.000000000000000
disp C   0.000613073693541  -0.000055402262794   0.001391339564054
disp N   0.000000000000000   0.000000000000000   0.000000000000000
disp N   0.000000000000000   0.000000000000000   0.000000000000000
disp N   0.000000000000000   0.000000000000000   0.000000000000000
disp N   0.000000000000000   0.000000000000000   0.000000000000000
disp Ti   0.000000000000000   0.000000000000000   0.000000000000000
disp O  -0.001314471333514   0.000890927952489   0.000914968150239
disp O   0.000275618852282   0.000254512302604  -0.002863095292302
disp H   0.009172945481649   0.014681447820695  -0.005596376012736

Real mode 6:
Frequency: 0.005372 Eh [ 1179 cm^-1 ]
Degeneracy: 1 of 1
IR intensity: 2.6042 e^2/amu [ 2538.8 km/mol ]
Displacements:
disp C   0.000000000000000   0.000000000000000   0.000000000000000
disp C   0.000000000000000   0.000000000000000   0.000000000000000
disp C   0.000000000000000   0.000000000000000   0.000000000000000
disp C   0.000000000000000   0.000000000000000   0.000000000000000
disp C   0.000000000000000   0.000000000000000   0.000000000000000
disp C   0.000000000000000   0.000000000000000   0.000000000000000
disp C   0.000000000000000   0.000000000000000   0.000000000000000
disp C   0.000000000000000   0.000000000000000   0.000000000000000
disp C   0.000000000000000   0.000000000000000   0.000000000000000
disp C   0.000000000000000   0.000000000000000   0.000000000000000
disp C   0.000000000000000   0.000000000000000   0.000000000000000
disp C   0.000000000000000   0.000000000000000   0.000000000000000
disp C   0.000000000000000   0.000000000000000   0.000000000000000
disp C   0.000000000000000   0.000000000000000   0.000000000000000
disp C   0.000000000000000   0.000000000000000   0.000000000000000
disp C   0.000000000000000   0.000000000000000   0.000000000000000
disp C   0.000000000000000   0.000000000000000   0.000000000000000
disp C   0.000000000000000   0.000000000000000   0.000000000000000
disp C   0.000000000000000   0.000000000000000   0.000000000000000
disp C   0.000000000000000   0.000000000000000   0.000000000000000
disp C   0.000000000000000   0.000000000000000   0.000000000000000
disp C   0.000000000000000   0.000000000000000   0.000000000000000
disp C   0.000000000000000   0.000000000000000   0.000000000000000
disp C   0.000000000000000   0.000000000000000   0.000000000000000
disp C   0.000000000000000   0.000000000000000   0.000000000000000
disp C   0.000000000000000   0.000000000000000   0.000000000000000
disp C   0.000000000000000   0.000000000000000   0.000000000000000
disp C   0.000000000000000   0.000000000000000   0.000000000000000
disp C   0.000000000000000   0.000000000000000   0.000000000000000
disp C   0.000000000000000   0.000000000000000   0.000000000000000
disp C   0.000000000000000   0.000000000000000   0.000000000000000
disp C   0.000000000000000   0.000000000000000   0.000000000000000
disp C   0.000000000000000   0.000000000000000   0.000000000000000
disp C   0.000000000000000   0.000000000000000   0.000000000000000
disp C   0.000000000000000   0.000000000000000   0.000000000000000
disp C   0.000000000000000   0.000000000000000   0.000000000000000
disp C   0.000000000000000   0.000000000000000   0.000000000000000
disp C   0.000000000000000   0.000000000000000   0.000000000000000
disp C   0.000000000000000   0.000000000000000   0.000000000000000
disp C   0.000000000000000   0.000000000000000   0.000000000000000
disp C   0.000000000000000   0.000000000000000   0.000000000000000
disp C   0.000000000000000   0.000000000000000   0.000000000000000
disp C   0.000000000000000   0.000000000000000   0.000000000000000
disp C   0.000000000000000   0.000000000000000   0.000000000000000
disp C  -0.001219330751964   0.000419431602232  -0.000027311297058
disp N   0.000000000000000   0.000000000000000   0.000000000000000
disp N   0.000000000000000   0.000000000000000   0.000000000000000
disp N   0.000000000000000   0.000000000000000   0.000000000000000
disp N   0.000000000000000   0.000000000000000   0.000000000000000
disp Ti   0.000000000000000   0.000000000000000   0.000000000000000
disp O  -0.001556933634053   0.000797316189219  -0.000708078180359
disp O   0.001692036906263  -0.001440601429687  -0.000845627198988
disp H  -0.000187275620106   0.003086241452379   0.019199237226470

Real mode 7:
Frequency: 0.005610 Eh [ 1231 cm^-1 ]
Degeneracy: 1 of 1
IR intensity: 6.7459 e^2/amu [ 6576.5 km/mol ]
Displacements:
disp C   0.000000000000000   0.000000000000000   0.000000000000000
disp C   0.000000000000000   0.000000000000000   0.000000000000000
disp C   0.000000000000000   0.000000000000000   0.000000000000000
disp C   0.000000000000000   0.000000000000000   0.000000000000000
disp C   0.000000000000000   0.000000000000000   0.000000000000000
disp C   0.000000000000000   0.000000000000000   0.000000000000000
disp C   0.000000000000000   0.000000000000000   0.000000000000000
disp C   0.000000000000000   0.000000000000000   0.000000000000000
disp C   0.000000000000000   0.000000000000000   0.000000000000000
disp C   0.000000000000000   0.000000000000000   0.000000000000000
disp C   0.000000000000000   0.000000000000000   0.000000000000000
disp C   0.000000000000000   0.000000000000000   0.000000000000000
disp C   0.000000000000000   0.000000000000000   0.000000000000000
disp C   0.000000000000000   0.000000000000000   0.000000000000000
disp C   0.000000000000000   0.000000000000000   0.000000000000000
disp C   0.000000000000000   0.000000000000000   0.000000000000000
disp C   0.000000000000000   0.000000000000000   0.000000000000000
disp C   0.000000000000000   0.000000000000000   0.000000000000000
disp C   0.000000000000000   0.000000000000000   0.000000000000000
disp C   0.000000000000000   0.000000000000000   0.000000000000000
disp C   0.000000000000000   0.000000000000000   0.000000000000000
disp C   0.000000000000000   0.000000000000000   0.000000000000000
disp C   0.000000000000000   0.000000000000000   0.000000000000000
disp C   0.000000000000000   0.000000000000000   0.000000000000000
disp C   0.000000000000000   0.000000000000000   0.000000000000000
disp C   0.000000000000000   0.000000000000000   0.000000000000000
disp C   0.000000000000000   0.000000000000000   0.000000000000000
disp C   0.000000000000000   0.000000000000000   0.000000000000000
disp C   0.000000000000000   0.000000000000000   0.000000000000000
disp C   0.000000000000000   0.000000000000000   0.000000000000000
disp C   0.000000000000000   0.000000000000000   0.000000000000000
disp C   0.000000000000000   0.000000000000000   0.000000000000000
disp C   0.000000000000000   0.000000000000000   0.000000000000000
disp C   0.000000000000000   0.000000000000000   0.000000000000000
disp C   0.000000000000000   0.000000000000000   0.000000000000000
disp C   0.000000000000000   0.000000000000000   0.000000000000000
disp C   0.000000000000000   0.000000000000000   0.000000000000000
disp C   0.000000000000000   0.000000000000000   0.000000000000000
disp C   0.000000000000000   0.000000000000000   0.000000000000000
disp C   0.000000000000000   0.000000000000000   0.000000000000000
disp C   0.000000000000000   0.000000000000000   0.000000000000000
disp C   0.000000000000000   0.000000000000000   0.000000000000000
disp C   0.000000000000000   0.000000000000000   0.000000000000000
disp C   0.000000000000000   0.000000000000000   0.000000000000000
disp C   0.001461269493433  -0.000113976079090   0.004759019469198
disp N   0.000000000000000   0.000000000000000   0.000000000000000
disp N   0.000000000000000   0.000000000000000   0.000000000000000
disp N   0.000000000000000   0.000000000000000   0.000000000000000
disp N   0.000000000000000   0.000000000000000   0.000000000000000
disp Ti   0.000000000000000   0.000000000000000   0.000000000000000
disp O   0.000076719949271  -0.000638670873971  -0.003210059655184
disp O  -0.001687565669523   0.001066319604868  -0.000279858092408
disp H  -0.000316133267713  -0.001330940374060   0.003502792166562

Real mode 8:
Frequency: 0.006870 Eh [ 1508 cm^-1 ]
Degeneracy: 1 of 1
IR intensity: 0.4971 e^2/amu [ 484.6 km/mol ]
Displacements:
disp C   0.000000000000000   0.000000000000000   0.000000000000000
disp C   0.000000000000000   0.000000000000000   0.000000000000000
disp C   0.000000000000000   0.000000000000000   0.000000000000000
disp C   0.000000000000000   0.000000000000000   0.000000000000000
disp C   0.000000000000000   0.000000000000000   0.000000000000000
disp C   0.000000000000000   0.000000000000000   0.000000000000000
disp C   0.000000000000000   0.000000000000000   0.000000000000000
disp C   0.000000000000000   0.000000000000000   0.000000000000000
disp C   0.000000000000000   0.000000000000000   0.000000000000000
disp C   0.000000000000000   0.000000000000000   0.000000000000000
disp C   0.000000000000000   0.000000000000000   0.000000000000000
disp C   0.000000000000000   0.000000000000000   0.000000000000000
disp C   0.000000000000000   0.000000000000000   0.000000000000000
disp C   0.000000000000000   0.000000000000000   0.000000000000000
disp C   0.000000000000000   0.000000000000000   0.000000000000000
disp C   0.000000000000000   0.000000000000000   0.000000000000000
disp C   0.000000000000000   0.000000000000000   0.000000000000000
disp C   0.000000000000000   0.000000000000000   0.000000000000000
disp C   0.000000000000000   0.000000000000000   0.000000000000000
disp C   0.000000000000000   0.000000000000000   0.000000000000000
disp C   0.000000000000000   0.000000000000000   0.000000000000000
disp C   0.000000000000000   0.000000000000000   0.000000000000000
disp C   0.000000000000000   0.000000000000000   0.000000000000000
disp C   0.000000000000000   0.000000000000000   0.000000000000000
disp C   0.000000000000000   0.000000000000000   0.000000000000000
disp C   0.000000000000000   0.000000000000000   0.000000000000000
disp C   0.000000000000000   0.000000000000000   0.000000000000000
disp C   0.000000000000000   0.000000000000000   0.000000000000000
disp C   0.000000000000000   0.000000000000000   0.000000000000000
disp C   0.000000000000000   0.000000000000000   0.000000000000000
disp C   0.000000000000000   0.000000000000000   0.000000000000000
disp C   0.000000000000000   0.000000000000000   0.000000000000000
disp C   0.000000000000000   0.000000000000000   0.000000000000000
disp C   0.000000000000000   0.000000000000000   0.000000000000000
disp C   0.000000000000000   0.000000000000000   0.000000000000000
disp C   0.000000000000000   0.000000000000000   0.000000000000000
disp C   0.000000000000000   0.000000000000000   0.000000000000000
disp C   0.000000000000000   0.000000000000000   0.000000000000000
disp C   0.000000000000000   0.000000000000000   0.000000000000000
disp C   0.000000000000000   0.000000000000000   0.000000000000000
disp C   0.000000000000000   0.000000000000000   0.000000000000000
disp C   0.000000000000000   0.000000000000000   0.000000000000000
disp C   0.000000000000000   0.000000000000000   0.000000000000000
disp C   0.000000000000000   0.000000000000000   0.000000000000000
disp C  -0.003593338795285   0.003215985999720   0.002285257737799
disp N   0.000000000000000   0.000000000000000   0.000000000000000
disp N   0.000000000000000   0.000000000000000   0.000000000000000
disp N   0.000000000000000   0.000000000000000   0.000000000000000
disp N   0.000000000000000   0.000000000000000   0.000000000000000
disp Ti   0.000000000000000   0.000000000000000   0.000000000000000
disp O   0.000729057318805  -0.000631746724123  -0.000827765883412
disp O   0.002180326957926  -0.001701022513077   0.000027568542951
disp H   0.000004485809434  -0.001149975893318  -0.007519540391869

Real mode 9:
Frequency: 0.016664 Eh [ 3657 cm^-1 ]
Degeneracy: 1 of 1
IR intensity: 1.0996 e^2/amu [ 1072.0 km/mol ]
Displacements:
disp C   0.000000000000000   0.000000000000000   0.000000000000000
disp C   0.000000000000000   0.000000000000000   0.000000000000000
disp C   0.000000000000000   0.000000000000000   0.000000000000000
disp C   0.000000000000000   0.000000000000000   0.000000000000000
disp C   0.000000000000000   0.000000000000000   0.000000000000000
disp C   0.000000000000000   0.000000000000000   0.000000000000000
disp C   0.000000000000000   0.000000000000000   0.000000000000000
disp C   0.000000000000000   0.000000000000000   0.000000000000000
disp C   0.000000000000000   0.000000000000000   0.000000000000000
disp C   0.000000000000000   0.000000000000000   0.000000000000000
disp C   0.000000000000000   0.000000000000000   0.000000000000000
disp C   0.000000000000000   0.000000000000000   0.000000000000000
disp C   0.000000000000000   0.000000000000000   0.000000000000000
disp C   0.000000000000000   0.000000000000000   0.000000000000000
disp C   0.000000000000000   0.000000000000000   0.000000000000000
disp C   0.000000000000000   0.000000000000000   0.000000000000000
disp C   0.000000000000000   0.000000000000000   0.000000000000000
disp C   0.000000000000000   0.000000000000000   0.000000000000000
disp C   0.000000000000000   0.000000000000000   0.000000000000000
disp C   0.000000000000000   0.000000000000000   0.000000000000000
disp C   0.000000000000000   0.000000000000000   0.000000000000000
disp C   0.000000000000000   0.000000000000000   0.000000000000000
disp C   0.000000000000000   0.000000000000000   0.000000000000000
disp C   0.000000000000000   0.000000000000000   0.000000000000000
disp C   0.000000000000000   0.000000000000000   0.000000000000000
disp C   0.000000000000000   0.000000000000000   0.000000000000000
disp C   0.000000000000000   0.000000000000000   0.000000000000000
disp C   0.000000000000000   0.000000000000000   0.000000000000000
disp C   0.000000000000000   0.000000000000000   0.000000000000000
disp C   0.000000000000000   0.000000000000000   0.000000000000000
disp C   0.000000000000000   0.000000000000000   0.000000000000000
disp C   0.000000000000000   0.000000000000000   0.000000000000000
disp C   0.000000000000000   0.000000000000000   0.000000000000000
disp C   0.000000000000000   0.000000000000000   0.000000000000000
disp C   0.000000000000000   0.000000000000000   0.000000000000000
disp C   0.000000000000000   0.000000000000000   0.000000000000000
disp C   0.000000000000000   0.000000000000000   0.000000000000000
disp C   0.000000000000000   0.000000000000000   0.000000000000000
disp C   0.000000000000000   0.000000000000000   0.000000000000000
disp C   0.000000000000000   0.000000000000000   0.000000000000000
disp C   0.000000000000000   0.000000000000000   0.000000000000000
disp C   0.000000000000000   0.000000000000000   0.000000000000000
disp C   0.000000000000000   0.000000000000000   0.000000000000000
disp C   0.000000000000000   0.000000000000000   0.000000000000000
disp C   0.000083566748228  -0.000055643960622   0.000000941641797
disp N   0.000000000000000   0.000000000000000   0.000000000000000
disp N   0.000000000000000   0.000000000000000   0.000000000000000
disp N   0.000000000000000   0.000000000000000   0.000000000000000
disp N   0.000000000000000   0.000000000000000   0.000000000000000
disp Ti   0.000000000000000   0.000000000000000   0.000000000000000
disp O   0.001111132702161  -0.000882635308319  -0.000003263556597
disp O  -0.000029123936287   0.000026899540987   0.000027157529716
disp H  -0.018035826003968   0.013667831502038  -0.000193292218709

Vibrational free energy components at T = 298 K:
	ZPE:          0.022116
	Evib:         0.023809
	TSvib:        0.002726
	Avib:         0.021083


Dumping 'jdft.n_up' ... done
Dumping 'jdft.n_dn' ... done
Dumping 'jdft.tau_up' ... done
Dumping 'jdft.tau_dn' ... done
Dumping 'jdft.eigenvals' ... done
Dumping 'jdft.eigStats' ... 
	eMin: -2.282887 at state 0 ( [ +0.000000 +0.000000 +0.000000 ] spin 1 )
	HOMO: -0.150025 at state 17 ( [ -0.333333 -0.333333 +0.000000 ] spin -1 )
	mu  : -0.145500
	LUMO: -0.144846 at state 0 ( [ +0.000000 +0.000000 +0.000000 ] spin 1 )
	eMax: +0.018404 at state 0 ( [ +0.000000 +0.000000 +0.000000 ] spin 1 )
	HOMO-LUMO gap: +0.005179
	Optical gap  : +0.010823 at state 8 ( [ -0.333333 -0.333333 +0.000000 ] spin 1 )
Dumping 'jdft.kPts' ... done
Dumping 'jdft.dosUp' ... done.
Dumping 'jdft.dosDn' ... done.
End date and time: Thu Nov 10 05:14:31 2022  (Duration: 0-10:15:53.40)
Done!

PROFILER:             augmentDensityGrid     0.704160 +/-     0.944584 s, 2735 calls,   1925.876661 s total
PROFILER:         augmentDensityGridGrad     0.430909 +/-     0.526077 s, 1460 calls,    629.126569 s total
PROFILER:        augmentDensitySpherical     0.000346 +/-     0.000499 s, 2735 calls,      0.946545 s total
PROFILER:    augmentDensitySphericalGrad     0.000317 +/-     0.000495 s, 2045 calls,      0.648834 s total
PROFILER:                 augmentOverlap     1.275590 +/-     1.971790 s, 6060 calls,   7730.073198 s total
PROFILER:        ColumnBundle::randomize     0.004934 +/-     0.000000 s,    1 calls,      0.004934 s total
PROFILER:                     diagouterI    14.655354 +/-     2.792221 s,  550 calls,   8060.444540 s total
PROFILER:              EdensityAndVscloc     6.287564 +/-     4.195417 s,  548 calls,   3445.585291 s total
PROFILER:                     EnlAndGrad     0.001019 +/-     0.001712 s, 3125 calls,      3.185004 s total
PROFILER:            ExCorrCommunication     0.076690 +/-     0.099972 s, 3433 calls,    263.275539 s total
PROFILER:               ExCorrFunctional     0.020886 +/-     0.003605 s,  588 calls,     12.280718 s total
PROFILER:                    ExCorrTotal     0.697447 +/-     0.150718 s,  588 calls,    410.098649 s total
PROFILER:                   Idag_DiagV_I    23.388267 +/-    11.671785 s,  396 calls,   9261.753793 s total
PROFILER:                    initWeights     1.845969 +/-     0.000000 s,    1 calls,      1.845969 s total
PROFILER:                    inv(matrix)     0.001845 +/-     0.000745 s,  492 calls,      0.907524 s total
PROFILER:            matrix::diagonalize     0.007018 +/-     0.004364 s,  929 calls,      6.519821 s total
PROFILER:                    matrix::set     0.000002 +/-     0.000003 s, 55708 calls,      0.110951 s total
PROFILER:            orthoMatrix(matrix)     0.001209 +/-     0.000656 s,  597 calls,      0.722068 s total
PROFILER:     RadialFunctionR::transform     0.005240 +/-     0.027714 s,  151 calls,      0.791290 s total
PROFILER:                    reduceKmesh     0.000001 +/-     0.000000 s,    1 calls,      0.000001 s total
PROFILER:   VanDerWaalsD3::energyAndGrad     0.030171 +/-     0.001714 s,   27 calls,      0.814625 s total
PROFILER:               WavefunctionDrag    25.428491 +/-     1.048872 s,   13 calls,    330.570382 s total
PROFILER:                            Y*M     0.583532 +/-     0.780568 s, 10508 calls,   6131.756440 s total
PROFILER:                          Y1^Y2     0.579225 +/-     0.796736 s, 7735 calls,   4480.303413 s total

MEMUSAGE:                   ColumnBundle     1.333771 GB
MEMUSAGE:        complexScalarFieldTilde     0.049438 GB
MEMUSAGE:                    IndexArrays     0.023178 GB
MEMUSAGE:                         matrix     0.020714 GB
MEMUSAGE:                           misc     0.051230 GB
MEMUSAGE:                    ScalarField     0.395508 GB
MEMUSAGE:               ScalarFieldTilde     0.262436 GB
MEMUSAGE:                          Total     1.650819 GB
