
*************** JDFTx 1.7.0 (git hash 5f12716a) ***************

Start date and time: Thu Nov 17 10:28:39 2022
Executable /home/nisi6161/jdftx_alpine/build/jdftx with command-line: -i in
Running on hosts (process indices):  c3cpu-a7-u17-1.rc.int.colorado.edu (0-31)
Divided in process groups (process indices):  0 (0)  1 (1)  2 (2)  3 (3)  4 (4)  5 (5)  6 (6)  7 (7)  8 (8)  9 (9)  10 (10)  11 (11)  12 (12)  13 (13)  14 (14)  15 (15)  16 (16)  17 (17)  18 (18)  19 (19)  20 (20)  21 (21)  22 (22)  23 (23)  24 (24)  25 (25)  26 (26)  27 (27)  28 (28)  29 (29)  30 (30)  31 (31)
Resource initialization completed at t[s]:      0.07
Run totals: 32 processes, 64 threads, 0 GPUs


Input parsed successfully to the following command list (including defaults):

basis kpoint-dependent
converge-empty-states yes
coords-type Cartesian
core-overlap-check none
coulomb-interaction Periodic
davidson-band-ratio 1.1
density-of-states Etol 1.000000e-06 Esigma 1.000000e-03 \
		Complete \
	Total \
	OrthoOrbital C 1   s \
	OrthoOrbital C 1   p \
	OrthoOrbital C 1   px \
	OrthoOrbital C 1   py \
	OrthoOrbital C 1   pz \
	OrthoOrbital O 1   s \
	OrthoOrbital O 1   p \
	OrthoOrbital O 1   px \
	OrthoOrbital O 1   py \
	OrthoOrbital O 1   pz \
	OrthoOrbital O 2   s \
	OrthoOrbital O 2   p \
	OrthoOrbital O 2   px \
	OrthoOrbital O 2   py \
	OrthoOrbital O 2   pz
dump End ElecDensity KEdensity BandEigs EigStats RhoAtom DOS Kpoints
dump Ionic State IonicPositions Lattice EigStats Ecomponents
dump 
dump 
dump 
dump 
dump 
dump 
dump 
dump 
dump-name jdft.$VAR
elec-cutoff 20
elec-eigen-algo Davidson
elec-ex-corr gga-PBE
elec-initial-magnetization 0.000000 no
elec-n-bands 18
elec-smearing Fermi 0.001
electronic-minimize  \
	dirUpdateScheme      FletcherReeves \
	linminMethod         DirUpdateRecommended \
	nIterations          100 \
	history              15 \
	knormThreshold       0 \
	energyDiffThreshold  1e-07 \
	nEnergyDiff          2 \
	alphaTstart          1 \
	alphaTmin            1e-10 \
	updateTestStepSize   yes \
	alphaTreduceFactor   0.1 \
	alphaTincreaseFactor 3 \
	nAlphaAdjustMax      3 \
	wolfeEnergy          0.0001 \
	wolfeGradient        0.9 \
	fdTest               no
exchange-regularization WignerSeitzTruncated
fluid LinearPCM 298.000000 1.013250
fluid-anion F- 0.5 MeanFieldLJ \
	epsBulk 1 \
	pMol 0 \
	epsInf 1 \
	Pvap 0 \
	sigmaBulk 0 \
	Rvdw 2.24877 \
	Res 0 \
	tauNuc 343133
fluid-cation Na+ 0.5 MeanFieldLJ \
	epsBulk 1 \
	pMol 0 \
	epsInf 1 \
	Pvap 0 \
	sigmaBulk 0 \
	Rvdw 2.19208 \
	Res 0 \
	tauNuc 343133
fluid-ex-corr lda-TF lda-PZ
fluid-gummel-loop 10 1.000000e-05
fluid-minimize  \
	dirUpdateScheme      PolakRibiere \
	linminMethod         DirUpdateRecommended \
	nIterations          400 \
	history              15 \
	knormThreshold       1e-11 \
	energyDiffThreshold  0 \
	nEnergyDiff          2 \
	alphaTstart          1 \
	alphaTmin            1e-10 \
	updateTestStepSize   yes \
	alphaTreduceFactor   0.1 \
	alphaTincreaseFactor 3 \
	nAlphaAdjustMax      6 \
	wolfeEnergy          0.0001 \
	wolfeGradient        0.9 \
	fdTest               no
fluid-solvent H2O 55.338 ScalarEOS \
	epsBulk 78.4 \
	pMol 0.92466 \
	epsInf 1.77 \
	Pvap 1.06736e-10 \
	sigmaBulk 4.62e-05 \
	Rvdw 2.61727 \
	Res 1.42 \
	tauNuc 343133 \
	poleEl 15 7 1
forces-output-coords Positions
ion C   9.448630999999999   9.655707000000000   2.318543000000000 1
ion O   9.448630999999999  11.868085000000001   2.322283999999999 1
ion O   9.448630999999999   7.442496999999999   2.312307000000000 1
ion-species /projects/musgravc/apps/jdftx-1.6.0/build/pseudopotentials/GBRV_v1.5/$ID_pbe_v1.uspp
ion-species /projects/musgravc/apps/jdftx-1.6.0/build/pseudopotentials/GBRV_v1.5/$ID_pbe_v1.2.uspp
ion-species /projects/musgravc/apps/jdftx-1.6.0/build/pseudopotentials/GBRV_v1.5/$ID_pbe_v1.4.uspp
ion-species /projects/musgravc/apps/jdftx-1.6.0/build/pseudopotentials/GBRV_v1.5/$ID_pbe_v1.5.uspp
ion-width Ecut
ionic-minimize  \
	dirUpdateScheme      L-BFGS \
	linminMethod         DirUpdateRecommended \
	nIterations          100 \
	history              15 \
	knormThreshold       0.0001 \
	energyDiffThreshold  1e-06 \
	nEnergyDiff          2 \
	alphaTstart          1 \
	alphaTmin            1e-10 \
	updateTestStepSize   yes \
	alphaTreduceFactor   0.1 \
	alphaTincreaseFactor 1 \
	nAlphaAdjustMax      1 \
	wolfeEnergy          0.0001 \
	wolfeGradient        0.9 \
	fdTest               no
kpoint   0.000000000000   0.000000000000   0.000000000000  1.00000000000000
kpoint-folding 1 1 1 
latt-move-scale 0 0 0
latt-scale 1 1 1 
lattice  \
	  37.794522999999998    0.000000000000000    0.000000000000000  \
	   0.000000000000000   37.794522999999998    0.000000000000000  \
	   0.000000000000000    0.000000000000000   37.794522999999998 
lattice-minimize  \
	dirUpdateScheme      L-BFGS \
	linminMethod         DirUpdateRecommended \
	nIterations          0 \
	history              15 \
	knormThreshold       0 \
	energyDiffThreshold  1e-06 \
	nEnergyDiff          2 \
	alphaTstart          1 \
	alphaTmin            1e-10 \
	updateTestStepSize   yes \
	alphaTreduceFactor   0.1 \
	alphaTincreaseFactor 3 \
	nAlphaAdjustMax      3 \
	wolfeEnergy          0.0001 \
	wolfeGradient        0.9 \
	fdTest               no
lcao-params 30 1e-06 0.001
pcm-variant CANDLE
spintype z-spin
subspace-rotation-factor 1 yes
symmetries automatic
symmetry-threshold 0.0001
van-der-waals D3
vibrations \
	dr 0.01\
	centralDiff no\
	useConstraints yes\
	translationSym yes\
	rotationSym no\
	omegaMin 0.0002\
	T 298\
	omegaResolution 0.0001



---------- Setting up symmetries ----------

Found 48 point-group symmetries of the bravais lattice
Found 2 space-group symmetries with basis
Applied RMS atom displacement 0 bohrs to make symmetries exact.
Applied RMS atom displacement 0 bohrs to make symmetries exact.

---------- Initializing the Grid ----------
R = 
[      37.7945            0            0  ]
[            0      37.7945            0  ]
[            0            0      37.7945  ]
unit cell volume = 53986.7
G =
[   0.166246          0          0  ]
[          0   0.166246          0  ]
[          0          0   0.166246  ]
Minimum fftbox size, Smin = [  156  156  156  ]
Chosen fftbox size, S = [  160  160  160  ]

---------- Exchange Correlation functional ----------
Initalized PBE GGA exchange.
Initalized PBE GGA correlation.

---------- Setting up pseudopotentials ----------
Width of ionic core gaussian charges (only for fluid interactions / plotting) set to 0.397384

Reading pseudopotential file '/projects/musgravc/apps/jdftx-1.6.0/build/pseudopotentials/GBRV_v1.5/c_pbe_v1.2.uspp':
  Title: C.  Created by USPP 7.3.6 on 3-2-2014
  Reference state energy: -5.406344.  4 valence electrons in orbitals:
    |200>  occupation: 2  eigenvalue: -0.504890
    |210>  occupation: 2  eigenvalue: -0.194356
  lMax: 1  lLocal: 2  QijEcut: 5
  4 projectors sampled on a log grid with 503 points:
    l: 0  eig: -0.504890  rCut: 1.3
    l: 0  eig: 0.000000  rCut: 1.3
    l: 1  eig: -0.194357  rCut: 1.3
    l: 1  eig: 0.000000  rCut: 1.3
  Partial core density with radius 1.1
  Transforming core density to a uniform radial grid of dG=0.02 with 1157 points.
  Transforming local potential to a uniform radial grid of dG=0.02 with 1157 points.
  Transforming nonlocal projectors to a uniform radial grid of dG=0.02 with 432 points.
  Transforming density augmentations to a uniform radial grid of dG=0.02 with 1157 points.
  Transforming atomic orbitals to a uniform radial grid of dG=0.02 with 432 points.
  Core radius for overlap checks: 1.30 bohrs.

Reading pseudopotential file '/projects/musgravc/apps/jdftx-1.6.0/build/pseudopotentials/GBRV_v1.5/o_pbe_v1.2.uspp':
  Title: O.  Created by USPP 7.3.6 on 3-2-2014
  Reference state energy: -15.894388.  6 valence electrons in orbitals:
    |200>  occupation: 2  eigenvalue: -0.878823
    |210>  occupation: 4  eigenvalue: -0.332131
  lMax: 2  lLocal: 2  QijEcut: 6
  5 projectors sampled on a log grid with 511 points:
    l: 0  eig: -0.878823  rCut: 1.25
    l: 0  eig: 0.000000  rCut: 1.25
    l: 1  eig: -0.332132  rCut: 1.25
    l: 1  eig: 0.000000  rCut: 1.25
    l: 2  eig: 1.000000  rCut: 1.25
  Partial core density with radius 0.7
  Transforming core density to a uniform radial grid of dG=0.02 with 1157 points.
  Transforming local potential to a uniform radial grid of dG=0.02 with 1157 points.
  Transforming nonlocal projectors to a uniform radial grid of dG=0.02 with 432 points.
  Transforming density augmentations to a uniform radial grid of dG=0.02 with 1157 points.
  Transforming atomic orbitals to a uniform radial grid of dG=0.02 with 432 points.
  Core radius for overlap checks: 1.25 bohrs.

Initialized 2 species with 3 total atoms.

Folded 1 k-points by 1x1x1 to 1 k-points.

---------- Setting up k-points, bands, fillings ----------
No reducable k-points. 
Computing the number of bands and number of electrons
Calculating initial fillings.
nElectrons:  16.000000   nBands: 18   nStates: 2

----- Setting up reduced wavefunction bases (one per k-point) -----
average nbasis = 230389.000 , ideal nbasis = 230635.203

----- Initializing Supercell corresponding to k-point mesh -----
Lattice vector linear combinations in supercell:
[   1   0   0  ]
[   0   1   0  ]
[   0   0   1  ]
Supercell lattice vectors:
[  37.7945  0  0  ]
[  0  37.7945  0  ]
[  0  0  37.7945  ]

Initializing DFT-D3 calculator:
	Parameters set for gga-PBE functional
	s6:  1.000  s_r6:  1.217
	s8:  0.722  s_r8:  1.000
	Per-atom parameters loaded for:
	 C:  sqrtQ[a0]:  3.105  Rcov[a0]:  1.417  CN: [ 0.00 0.99 2.00 3.00 3.98 ]
	 O:  sqrtQ[a0]:  2.594  Rcov[a0]:  1.191  CN: [ 0.00 0.99 1.99 ]

Initializing DFT-D2 calculator for fluid / solvation:
	 C:  C6:   30.35 Eh-a0^6  R0: 2.744 a0
	 O:  C6:   12.14 Eh-a0^6  R0: 2.536 a0

---------- Setting up ewald sum ----------
Optimum gaussian width for ewald sums = 12.555058 bohr.
Real space sum over 1331 unit cells with max indices [  5  5  5  ]
Reciprocal space sum over 2197 terms with max indices [  6  6  6  ]

Computing DFT-D3 correction:
# coordination-number C 2.000
# coordination-number O 1.011 1.011
# diagonal-C6 C 29.49
# diagonal-C6 O 12.80 12.80
EvdW_6 =   -0.000008
EvdW_8 =   -0.000079

---------- Allocating electronic variables ----------
Initializing wave functions:  linear combination of atomic orbitals
Note: number of bands (18) exceeds available atomic orbitals (12)
C pseudo-atom occupations:   s ( 2 )  p ( 2 )
O pseudo-atom occupations:   s ( 2 )  p ( 4 )
	FillingsUpdate:  mu: -0.177543023  nElectrons: 16.000000  magneticMoment: [ Abs: 0.00096  Tot: +0.00000 ]
LCAOMinimize: Iter:   0  F: -37.3545483749891147  |grad|_K:  3.318e-02  alpha:  1.000e+00
	FillingsUpdate:  mu: -0.200000000  nElectrons: 16.000000  magneticMoment: [ Abs: 0.00114  Tot: +0.00000 ]
LCAOMinimize: Iter:   1  F: -37.4961745324464744  |grad|_K:  2.574e-03  alpha:  3.758e-01  linmin:  1.296e-01  cgtest: -3.100e-01  t[s]:     94.50
	FillingsUpdate:  mu: -0.195322437  nElectrons: 16.000000  magneticMoment: [ Abs: 0.00129  Tot: +0.00000 ]
LCAOMinimize: Iter:   2  F: -37.4977043027846690  |grad|_K:  1.591e-03  alpha:  8.030e-01  linmin:  3.004e-02  cgtest:  3.009e-01  t[s]:    126.38
	FillingsUpdate:  mu: -0.195250716  nElectrons: 16.000000  magneticMoment: [ Abs: 0.00131  Tot: +0.00000 ]
LCAOMinimize: Iter:   3  F: -37.4979829411204975  |grad|_K:  2.309e-04  alpha:  3.550e-01  linmin: -8.267e-03  cgtest:  3.063e-01  t[s]:    158.22
LCAOMinimize: Encountered beta<0, resetting CG.
	FillingsUpdate:  mu: -0.195501676  nElectrons: 16.000000  magneticMoment: [ Abs: 0.00131  Tot: +0.00000 ]
LCAOMinimize: Iter:   4  F: -37.4979907745065830  |grad|_K:  1.767e-04  alpha:  4.532e-01  linmin: -9.850e-04  cgtest:  4.653e-03  t[s]:    190.05
	FillingsUpdate:  mu: -0.195674349  nElectrons: 16.000000  magneticMoment: [ Abs: 0.00131  Tot: +0.00000 ]
LCAOMinimize: Iter:   5  F: -37.4979940368896507  |grad|_K:  5.151e-05  alpha:  3.218e-01  linmin: -1.265e-04  cgtest: -2.357e-02  t[s]:    221.92
	FillingsUpdate:  mu: -0.195693061  nElectrons: 16.000000  magneticMoment: [ Abs: 0.00132  Tot: +0.00000 ]
LCAOMinimize: Iter:   6  F: -37.4979943538176670  |grad|_K:  6.187e-07  alpha:  3.686e-01  linmin:  3.974e-03  cgtest:  3.184e-02  t[s]:    253.80
LCAOMinimize: Encountered beta<0, resetting CG.
	FillingsUpdate:  mu: -0.195692756  nElectrons: 16.000000  magneticMoment: [ Abs: 0.00132  Tot: +0.00000 ]
LCAOMinimize: Iter:   7  F: -37.4979943538714764  |grad|_K:  5.184e-07  alpha:  4.354e-01  linmin: -1.891e-04  cgtest:  2.770e-03  t[s]:    285.67
LCAOMinimize: Converged (|Delta F|<1.000000e-06 for 2 iters).
----- createFluidSolver() ----- (Fluid-side solver setup)
   Initializing fluid molecule 'H2O'
     Initializing site 'O'
       Electron density: proportional to exp(-r/0.36935)*erfc((r-0.51523)/0.36823) with norm 6.826
       Charge density: gaussian nuclear width 0.478731 with net site charge 0.826
       Polarizability: cuspless exponential with width 0.32 and norm 3.73
       Hard sphere radius: 2.57003 bohrs
       Positions in reference frame:
         [ +0.000000 +0.000000 +0.000000 ]
     Initializing site 'H'
       Electron density: proportional to exp(-r/0.34641)*erfc((r-0)/0.390882) with norm 0.587
       Charge density: gaussian nuclear width 0.377945 with net site charge -0.413
       Polarizability: cuspless exponential with width 0.39 and norm 3.3
       Positions in reference frame:
         [ +0.000000 -1.441945 +1.122523 ]
         [ +0.000000 +1.441945 +1.122523 ]
     Net charge: 0   dipole magnitude: 0.927204
     Initializing spherical shell mfKernel with radius 2.61727 Bohr
     deltaS corrections:
       site 'O': -7.54299
       site 'H': -6.83917
   Initializing fluid molecule 'Na+'
     Initializing site 'Na'
       Electron density: proportional to exp(-r/0.19682)*erfc((r-0.71491)/0.41314) with norm 8.1383
       Charge density: gaussian nuclear width 0.365347 with net site charge -1
       Hard sphere radius: 1.86327 bohrs
       Positions in reference frame:
         [ +0.000000 +0.000000 +0.000000 ]
     Net charge: -1   dipole magnitude: 0
     Initializing gaussian mfKernel with width: 1.55004 Bohr
     deltaS corrections:
       site 'Na': -22.3555
   Initializing fluid molecule 'F-'
     Initializing site 'F'
       Electron density: proportional to exp(-r/0.38886)*erfc((r-0)/0.438782) with norm 8
       Charge density: gaussian nuclear width 0.374796 with net site charge 1
       Hard sphere radius: 2.39995 bohrs
       Positions in reference frame:
         [ +0.000000 +0.000000 +0.000000 ]
     Net charge: 1   dipole magnitude: 0
     Initializing gaussian mfKernel with width: 1.59012 Bohr
     deltaS corrections:
       site 'F': -9.04335

Correction to mu due to finite nuclear width = -0.000294058
   Cavity determined by nc: 0.00142 and sigma: 0.707107
   Nonlocal vdW cavity from gaussian model electron density with norm = 8 and sigma = 0.993594 bohr
   Charge asymmetry in cavity with sensitivity pCavity = 36.5 e-bohr/Eh
   Electrostatic cavity expanded by eta = 1.46 bohrs
   Weighted density cavitation model constrained by Nbulk: 0.0049383 bohr^-3, Pvap: 3.14029 kPa, Rvdw: 2.61727 bohr and sigmaBulk: 4.62e-05 Eh/bohr^2 at T: 298 K.
   Weighted density dispersion model using vdW pair potentials with single solvent site with sqrtC6eff: 0.77 SI.
WARNING: Vibrations: switching off translationSym and rotationSym since useConstraints is on.

---- Citations for features of the code used in this run ----

   Software package:
      R. Sundararaman, K. Letchworth-Weaver, K.A. Schwarz, D. Gunceler, Y. Ozhabes and T.A. Arias, 'JDFTx: software for joint density-functional theory', SoftwareX 6, 278 (2017)

   gga-PBE exchange-correlation functional:
      J.P. Perdew, K. Burke and M. Ernzerhof, Phys. Rev. Lett. 77, 3865 (1996)

   Pseudopotentials:
      KF Garrity, JW Bennett, KM Rabe and D Vanderbilt, Comput. Mater. Sci. 81, 446 (2014)

   DFT-D3 dispersion correction:
      S. Grimme, J. Antony, S. Ehrlich and H. Krieg, J. Chem. Phys. 132, 154104 (2010)

   DFT-D2 dispersion correction:
      S. Grimme, J. Comput. Chem. 27, 1787 (2006)

   Charge-asymmetric nonlocally-determined local-electric (CANDLE) solvation model:
      R. Sundararaman and W.A. Goddard III, J. Chem. Phys. 142, 064107 (2015)

   Total energy minimization with Auxiliary Hamiltonian:
      C. Freysoldt, S. Boeck, and J. Neugebauer, Phys. Rev. B 79, 241103(R) (2009)

   Linear-tetrahedron sampling for density of states:
      G. Lehmann and M. Taut, Phys. status solidi (b) 54, 469 (1972)

This list may not be complete. Please suggest additional citations or
report any other bugs at https://github.com/shankar1729/jdftx/issues

Initialization completed successfully at t[s]:    289.55

------ Vibrations::calculate() -------
WARNING: Vibrations module is experimental. Please report bugs!
Compare results with and without symmetries and report discrepancies.
Degrees of freedom: 9 total, 9 symmetry-independent.

Computing DFT-D3 correction:
# coordination-number C 2.000
# coordination-number O 1.011 1.011
# diagonal-C6 C 29.49
# diagonal-C6 O 12.80 12.80
EvdW_6 =   -0.000008
EvdW_8 =   -0.000079
Fluid solver invoked on fresh (random / LCAO) wavefunctions
Running a vacuum solve first:

-------- Initial electronic minimization -----------
	FillingsUpdate:  mu: -0.195692756  nElectrons: 16.000000  magneticMoment: [ Abs: 0.00132  Tot: +0.00000 ]
ElecMinimize: Iter:   0  F: -37.497994353871441  |grad|_K:  2.715e-04  alpha:  1.000e+00
	FillingsUpdate:  mu: -0.024654535  nElectrons: 16.000000  magneticMoment: [ Abs: 0.00076  Tot: +0.00000 ]
	SubspaceRotationAdjust: set factor to 1
ElecMinimize: Iter:   1  F: -37.819124691061006  |grad|_K:  1.048e-04  alpha:  5.412e-01  linmin:  3.338e-04  t[s]:    350.47
	FillingsUpdate:  mu: -0.043760166  nElectrons: 16.000000  magneticMoment: [ Abs: 0.00042  Tot: +0.00000 ]
	SubspaceRotationAdjust: set factor to 0.818
ElecMinimize: Iter:   2  F: -37.868000869046369  |grad|_K:  4.220e-05  alpha:  5.471e-01  linmin: -2.894e-04  t[s]:    386.01
	FillingsUpdate:  mu: -0.053413637  nElectrons: 16.000000  magneticMoment: [ Abs: 0.00027  Tot: -0.00000 ]
	SubspaceRotationAdjust: set factor to 0.744
ElecMinimize: Iter:   3  F: -37.877228607182801  |grad|_K:  2.569e-05  alpha:  5.983e-01  linmin:  7.261e-05  t[s]:    421.53
	FillingsUpdate:  mu: -0.051808348  nElectrons: 16.000000  magneticMoment: [ Abs: 0.00021  Tot: +0.00000 ]
	SubspaceRotationAdjust: set factor to 0.764
ElecMinimize: Iter:   4  F: -37.879946969480059  |grad|_K:  1.167e-05  alpha:  5.173e-01  linmin:  7.821e-06  t[s]:    457.05
	FillingsUpdate:  mu: -0.050982438  nElectrons: 16.000000  magneticMoment: [ Abs: 0.00015  Tot: -0.00000 ]
	SubspaceRotationAdjust: set factor to 0.788
ElecMinimize: Iter:   5  F: -37.880654410594687  |grad|_K:  5.274e-06  alpha:  6.312e-01  linmin:  7.056e-06  t[s]:    492.57
	FillingsUpdate:  mu: -0.050731718  nElectrons: 16.000000  magneticMoment: [ Abs: 0.00011  Tot: -0.00000 ]
	SubspaceRotationAdjust: set factor to 0.748
ElecMinimize: Iter:   6  F: -37.880783691947713  |grad|_K:  3.106e-06  alpha:  5.651e-01  linmin:  3.593e-07  t[s]:    528.23
	FillingsUpdate:  mu: -0.050671316  nElectrons: 16.000000  magneticMoment: [ Abs: 0.00007  Tot: -0.00000 ]
	SubspaceRotationAdjust: set factor to 0.915
ElecMinimize: Iter:   7  F: -37.880825096866332  |grad|_K:  1.560e-06  alpha:  5.175e-01  linmin:  1.122e-06  t[s]:    563.84
	FillingsUpdate:  mu: -0.050940202  nElectrons: 16.000000  magneticMoment: [ Abs: 0.00004  Tot: +0.00000 ]
	SubspaceRotationAdjust: set factor to 1.15
ElecMinimize: Iter:   8  F: -37.880837970472598  |grad|_K:  7.946e-07  alpha:  6.426e-01  linmin:  1.533e-06  t[s]:    599.36
	FillingsUpdate:  mu: -0.050910063  nElectrons: 16.000000  magneticMoment: [ Abs: 0.00003  Tot: +0.00000 ]
	SubspaceRotationAdjust: set factor to 1.28
ElecMinimize: Iter:   9  F: -37.880840830928740  |grad|_K:  4.071e-07  alpha:  5.503e-01  linmin:  2.406e-07  t[s]:    634.88
	FillingsUpdate:  mu: -0.050922333  nElectrons: 16.000000  magneticMoment: [ Abs: 0.00002  Tot: -0.00000 ]
	SubspaceRotationAdjust: set factor to 0.954
ElecMinimize: Iter:  10  F: -37.880841429236902  |grad|_K:  2.295e-07  alpha:  4.361e-01  linmin:  5.780e-09  t[s]:    670.32
	FillingsUpdate:  mu: -0.051000601  nElectrons: 16.000000  magneticMoment: [ Abs: 0.00001  Tot: +0.00000 ]
	SubspaceRotationAdjust: set factor to 0.944
ElecMinimize: Iter:  11  F: -37.880841642575056  |grad|_K:  1.100e-07  alpha:  4.883e-01  linmin: -3.525e-08  t[s]:    705.83
	FillingsUpdate:  mu: -0.052580424  nElectrons: 16.000000  magneticMoment: [ Abs: 0.00001  Tot: +0.00000 ]
	SubspaceRotationAdjust: set factor to 0.848
ElecMinimize: Iter:  12  F: -37.880841698382085  |grad|_K:  7.258e-08  alpha:  5.554e-01  linmin: -8.712e-08  t[s]:    741.44
	FillingsUpdate:  mu: -0.054919233  nElectrons: 16.000000  magneticMoment: [ Abs: 0.00000  Tot: -0.00000 ]
	SubspaceRotationAdjust: set factor to 0.62
ElecMinimize: Iter:  13  F: -37.880841715936668  |grad|_K:  3.592e-08  alpha:  4.012e-01  linmin: -1.022e-08  t[s]:    776.94
ElecMinimize: Converged (|Delta F|<1.000000e-07 for 2 iters).
Setting wave functions to eigenvectors of Hamiltonian
Converging empty states (this may take a while): |deigs|: 4.403e-02
Vacuum energy after initial minimize, F = -37.880841715936668


-------- Electronic minimization -----------
	Linear fluid (dielectric constant: 78.4, screening length: 8.12261 Bohr) occupying 0.983565 of unit cell:	Completed after 14 iterations at t[s]:    962.75
	FillingsUpdate:  mu: -0.049726396  nElectrons: 16.000000  magneticMoment: [ Abs: 0.00000  Tot: +0.00000 ]
ElecMinimize: Iter:   0  F: -37.881911857753664  |grad|_K:  8.300e-06  alpha:  1.000e+00
	Linear fluid (dielectric constant: 78.4, screening length: 8.12261 Bohr) occupying 0.983617 of unit cell:	Completed after 7 iterations at t[s]:   1015.95
	Linear fluid (dielectric constant: 78.4, screening length: 8.12261 Bohr) occupying 0.983598 of unit cell:	Completed after 3 iterations at t[s]:   1045.96
	FillingsUpdate:  mu: -0.049554519  nElectrons: 16.000000  magneticMoment: [ Abs: 0.00000  Tot: -0.00000 ]
	SubspaceRotationAdjust: set factor to 0.582
ElecMinimize: Iter:   1  F: -37.882277124204371  |grad|_K:  4.649e-06  alpha:  6.380e-01  linmin:  2.661e-06  t[s]:   1067.93
	Linear fluid (dielectric constant: 78.4, screening length: 8.12261 Bohr) occupying 0.983613 of unit cell:	Completed after 3 iterations at t[s]:   1090.42
	Linear fluid (dielectric constant: 78.4, screening length: 8.12261 Bohr) occupying 0.983611 of unit cell:	Completed after 2 iterations at t[s]:   1118.72
	FillingsUpdate:  mu: -0.049532073  nElectrons: 16.000000  magneticMoment: [ Abs: 0.00000  Tot: -0.00000 ]
	SubspaceRotationAdjust: set factor to 0.6
ElecMinimize: Iter:   2  F: -37.882376291879467  |grad|_K:  2.128e-06  alpha:  5.538e-01  linmin:  5.850e-06  t[s]:   1140.82
	Linear fluid (dielectric constant: 78.4, screening length: 8.12261 Bohr) occupying 0.983617 of unit cell:	Completed after 2 iterations at t[s]:   1161.42
	Linear fluid (dielectric constant: 78.4, screening length: 8.12261 Bohr) occupying 0.983617 of unit cell:	Completed after 0 iterations at t[s]:   1184.02
	FillingsUpdate:  mu: -0.049395051  nElectrons: 16.000000  magneticMoment: [ Abs: 0.00000  Tot: +0.00000 ]
	SubspaceRotationAdjust: set factor to 0.633
ElecMinimize: Iter:   3  F: -37.882397574859652  |grad|_K:  8.578e-07  alpha:  5.711e-01  linmin: -1.182e-05  t[s]:   1206.11
	Linear fluid (dielectric constant: 78.4, screening length: 8.12261 Bohr) occupying 0.983617 of unit cell:	Completed after 0 iterations at t[s]:   1221.30
	Linear fluid (dielectric constant: 78.4, screening length: 8.12261 Bohr) occupying 0.983617 of unit cell:	Completed after 0 iterations at t[s]:   1244.02
	FillingsUpdate:  mu: -0.049450736  nElectrons: 16.000000  magneticMoment: [ Abs: 0.00000  Tot: +0.00000 ]
	SubspaceRotationAdjust: set factor to 0.687
ElecMinimize: Iter:   4  F: -37.882402242398129  |grad|_K:  3.594e-07  alpha:  7.530e-01  linmin: -6.965e-08  t[s]:   1266.03
	Linear fluid (dielectric constant: 78.4, screening length: 8.12261 Bohr) occupying 0.983617 of unit cell:	Completed after 1 iterations at t[s]:   1284.93
	Linear fluid (dielectric constant: 78.4, screening length: 8.12261 Bohr) occupying 0.983617 of unit cell:	Completed after 0 iterations at t[s]:   1307.68
	FillingsUpdate:  mu: -0.049504215  nElectrons: 16.000000  magneticMoment: [ Abs: 0.00000  Tot: +0.00000 ]
	SubspaceRotationAdjust: set factor to 0.653
ElecMinimize: Iter:   5  F: -37.882402525976588  |grad|_K:  2.417e-07  alpha:  4.563e-01  linmin: -1.077e-04  t[s]:   1329.89
	Linear fluid (dielectric constant: 78.4, screening length: 8.12261 Bohr) occupying 0.983617 of unit cell:	Completed after 0 iterations at t[s]:   1345.02
	Linear fluid (dielectric constant: 78.4, screening length: 8.12261 Bohr) occupying 0.983617 of unit cell:	Completed after 0 iterations at t[s]:   1367.84
	FillingsUpdate:  mu: -0.049559703  nElectrons: 16.000000  magneticMoment: [ Abs: 0.00000  Tot: +0.00000 ]
	SubspaceRotationAdjust: set factor to 0.738
ElecMinimize: Iter:   6  F: -37.882402842290141  |grad|_K:  1.645e-07  alpha:  5.440e-01  linmin: -1.641e-07  t[s]:   1389.93
	Linear fluid (dielectric constant: 78.4, screening length: 8.12261 Bohr) occupying 0.983617 of unit cell:	Completed after 0 iterations at t[s]:   1406.85
	Linear fluid (dielectric constant: 78.4, screening length: 8.12261 Bohr) occupying 0.983617 of unit cell:	Completed after 0 iterations at t[s]:   1429.72
ElecMinimize: 	Step increased F by 7.429271e-09, reducing alpha to 2.761795e-02.
	Linear fluid (dielectric constant: 78.4, screening length: 8.12261 Bohr) occupying 0.983617 of unit cell:	Completed after 0 iterations at t[s]:   1465.85
ElecMinimize: 	Step increased F by 6.796918e-08, reducing alpha to 2.761795e-03.
	Linear fluid (dielectric constant: 78.4, screening length: 8.12261 Bohr) occupying 0.983617 of unit cell:	Completed after 0 iterations at t[s]:   1502.18
ElecMinimize: 	Step increased F by 7.668235e-08, reducing alpha to 2.761795e-04.
ElecMinimize: 	Step failed to reduce F after 3 attempts. Quitting step.
ElecMinimize: 	Undoing step.
	Linear fluid (dielectric constant: 78.4, screening length: 8.12261 Bohr) occupying 0.983617 of unit cell:	Completed after 0 iterations at t[s]:   1538.29
ElecMinimize: 	Step failed: resetting search direction.
	FillingsUpdate:  mu: -0.049562120  nElectrons: 16.000000  magneticMoment: [ Abs: 0.00000  Tot: -0.00000 ]
	SubspaceRotationAdjust: set factor to 0.802
ElecMinimize: Iter:   7  F: -37.882402765508331  |grad|_K:  1.469e-07  alpha:  2.762e-04
	Linear fluid (dielectric constant: 78.4, screening length: 8.12261 Bohr) occupying 0.983617 of unit cell:	Completed after 0 iterations at t[s]:   1575.63
	Linear fluid (dielectric constant: 78.4, screening length: 8.12261 Bohr) occupying 0.983617 of unit cell:	Completed after 0 iterations at t[s]:   1598.36
	FillingsUpdate:  mu: -0.049591521  nElectrons: 16.000000  magneticMoment: [ Abs: 0.00000  Tot: +0.00000 ]
	SubspaceRotationAdjust: set factor to 0.965
ElecMinimize: Iter:   8  F: -37.882402865522629  |grad|_K:  7.095e-08  alpha:  5.585e-01  linmin: -7.382e-08  t[s]:   1621.41
	Linear fluid (dielectric constant: 78.4, screening length: 8.12261 Bohr) occupying 0.983618 of unit cell:	Completed after 0 iterations at t[s]:   1636.96
	Linear fluid (dielectric constant: 78.4, screening length: 8.12261 Bohr) occupying 0.983618 of unit cell:	Completed after 0 iterations at t[s]:   1659.83
	FillingsUpdate:  mu: -0.049643171  nElectrons: 16.000000  magneticMoment: [ Abs: 0.00000  Tot: +0.00000 ]
	SubspaceRotationAdjust: set factor to 1.23
ElecMinimize: Iter:   9  F: -37.882402905395054  |grad|_K:  4.181e-08  alpha:  9.549e-01  linmin: -1.241e-06  t[s]:   1681.88
	Linear fluid (dielectric constant: 78.4, screening length: 8.12261 Bohr) occupying 0.983618 of unit cell:	Completed after 0 iterations at t[s]:   1698.87
	Linear fluid (dielectric constant: 78.4, screening length: 8.12261 Bohr) occupying 0.983618 of unit cell:	Completed after 0 iterations at t[s]:   1721.73
ElecMinimize: 	Step increased F by 6.572610e-08, reducing alpha to 1.280292e-02.
	Linear fluid (dielectric constant: 78.4, screening length: 8.12261 Bohr) occupying 0.983618 of unit cell:	Completed after 0 iterations at t[s]:   1757.80
ElecMinimize: 	Step increased F by 6.667857e-08, reducing alpha to 1.280292e-03.
	Linear fluid (dielectric constant: 78.4, screening length: 8.12261 Bohr) occupying 0.983618 of unit cell:	Completed after 0 iterations at t[s]:   1793.89
ElecMinimize: 	Step increased F by 6.680560e-08, reducing alpha to 1.280292e-04.
ElecMinimize: 	Step failed to reduce F after 3 attempts. Quitting step.
ElecMinimize: 	Undoing step.
	Linear fluid (dielectric constant: 78.4, screening length: 8.12261 Bohr) occupying 0.983618 of unit cell:	Completed after 0 iterations at t[s]:   1829.86
ElecMinimize: 	Step failed: resetting search direction.
	FillingsUpdate:  mu: -0.049638675  nElectrons: 16.000000  magneticMoment: [ Abs: 0.00000  Tot: -0.00000 ]
	SubspaceRotationAdjust: set factor to 1.15
ElecMinimize: Iter:  10  F: -37.882402838588078  |grad|_K:  4.351e-08  alpha:  1.280e-04
	Linear fluid (dielectric constant: 78.4, screening length: 8.12261 Bohr) occupying 0.983618 of unit cell:	Completed after 0 iterations at t[s]:   1867.18
	Linear fluid (dielectric constant: 78.4, screening length: 8.12261 Bohr) occupying 0.983618 of unit cell:	Completed after 0 iterations at t[s]:   1890.18
	FillingsUpdate:  mu: -0.049657522  nElectrons: 16.000000  magneticMoment: [ Abs: 0.00000  Tot: +0.00000 ]
	SubspaceRotationAdjust: set factor to 1.32
ElecMinimize: Iter:  11  F: -37.882402847042528  |grad|_K:  1.939e-08  alpha:  5.383e-01  linmin: -3.475e-07  t[s]:   1912.25
	Linear fluid (dielectric constant: 78.4, screening length: 8.12261 Bohr) occupying 0.983618 of unit cell:	Completed after 0 iterations at t[s]:   1927.40
	Linear fluid (dielectric constant: 78.4, screening length: 8.12261 Bohr) occupying 0.983618 of unit cell:	Completed after 0 iterations at t[s]:   1950.21
	FillingsUpdate:  mu: -0.049683523  nElectrons: 16.000000  magneticMoment: [ Abs: 0.00000  Tot: +0.00000 ]
	SubspaceRotationAdjust: set factor to 1.58
ElecMinimize: Iter:  12  F: -37.882402849208638  |grad|_K:  9.537e-09  alpha:  6.944e-01  linmin: -1.065e-07  t[s]:   1972.35
ElecMinimize: Converged (|Delta F|<1.000000e-07 for 2 iters).
Setting wave functions to eigenvectors of Hamiltonian
Converging empty states (this may take a while): |deigs|: 2.377e-04
Single-point solvation energy estimate, DeltaF = -0.001561133271970

Computing DFT-D3 correction:
# coordination-number C 2.000
# coordination-number O 1.011 1.011
# diagonal-C6 C 29.49
# diagonal-C6 O 12.80 12.80
EvdW_6 =   -0.000008
EvdW_8 =   -0.000079
Completed 1 of 10 configurations.

Computing DFT-D3 correction:
# coordination-number C 2.000
# coordination-number O 1.011 1.011
# diagonal-C6 C 29.49
# diagonal-C6 O 12.80 12.80
EvdW_6 =   -0.000008
EvdW_8 =   -0.000079

-------- Electronic minimization -----------
	Linear fluid (dielectric constant: 78.4, screening length: 8.12261 Bohr) occupying 0.983618 of unit cell:	Completed after 4 iterations at t[s]:   2087.10
	FillingsUpdate:  mu: -0.050021253  nElectrons: 16.000000  magneticMoment: [ Abs: 0.00000  Tot: +0.00000 ]
ElecMinimize: Iter:   0  F: -37.882365018717252  |grad|_K:  2.357e-06  alpha:  1.000e+00
	Linear fluid (dielectric constant: 78.4, screening length: 8.12261 Bohr) occupying 0.983617 of unit cell:	Completed after 2 iterations at t[s]:   2130.61
	Linear fluid (dielectric constant: 78.4, screening length: 8.12261 Bohr) occupying 0.983617 of unit cell:	Completed after 2 iterations at t[s]:   2158.93
	FillingsUpdate:  mu: -0.050001385  nElectrons: 16.000000  magneticMoment: [ Abs: 0.00000  Tot: -0.00000 ]
	SubspaceRotationAdjust: set factor to 1.57
ElecMinimize: Iter:   1  F: -37.882392078095435  |grad|_K:  8.200e-07  alpha:  5.833e-01  linmin:  6.024e-05  t[s]:   2180.78
	Linear fluid (dielectric constant: 78.4, screening length: 8.12261 Bohr) occupying 0.983617 of unit cell:	Completed after 2 iterations at t[s]:   2201.44
	Linear fluid (dielectric constant: 78.4, screening length: 8.12261 Bohr) occupying 0.983617 of unit cell:	Completed after 0 iterations at t[s]:   2224.18
	FillingsUpdate:  mu: -0.049986349  nElectrons: 16.000000  magneticMoment: [ Abs: 0.00000  Tot: +0.00000 ]
	SubspaceRotationAdjust: set factor to 1.2
ElecMinimize: Iter:   2  F: -37.882394991181954  |grad|_K:  5.402e-07  alpha:  5.269e-01  linmin: -4.241e-06  t[s]:   2246.22
	Linear fluid (dielectric constant: 78.4, screening length: 8.12261 Bohr) occupying 0.983617 of unit cell:	Completed after 1 iterations at t[s]:   2265.18
	Linear fluid (dielectric constant: 78.4, screening length: 8.12261 Bohr) occupying 0.983617 of unit cell:	Completed after 0 iterations at t[s]:   2287.78
	FillingsUpdate:  mu: -0.050008948  nElectrons: 16.000000  magneticMoment: [ Abs: 0.00000  Tot: -0.00000 ]
	SubspaceRotationAdjust: set factor to 0.8
ElecMinimize: Iter:   3  F: -37.882395977607992  |grad|_K:  2.817e-07  alpha:  4.135e-01  linmin:  2.806e-04  t[s]:   2310.18
	Linear fluid (dielectric constant: 78.4, screening length: 8.12261 Bohr) occupying 0.983617 of unit cell:	Completed after 0 iterations at t[s]:   2325.42
	Linear fluid (dielectric constant: 78.4, screening length: 8.12261 Bohr) occupying 0.983617 of unit cell:	Completed after 0 iterations at t[s]:   2348.23
	FillingsUpdate:  mu: -0.050009977  nElectrons: 16.000000  magneticMoment: [ Abs: 0.00000  Tot: +0.00000 ]
	SubspaceRotationAdjust: set factor to 1.22
ElecMinimize: Iter:   4  F: -37.882396402785773  |grad|_K:  1.759e-07  alpha:  6.687e-01  linmin: -1.934e-06  t[s]:   2370.26
	Linear fluid (dielectric constant: 78.4, screening length: 8.12261 Bohr) occupying 0.983617 of unit cell:	Completed after 1 iterations at t[s]:   2389.12
	Linear fluid (dielectric constant: 78.4, screening length: 8.12261 Bohr) occupying 0.983617 of unit cell:	Completed after 0 iterations at t[s]:   2411.93
ElecMinimize: 	Step increased F by 8.698246e-08, reducing alpha to 2.587887e-02.
	Linear fluid (dielectric constant: 78.4, screening length: 8.12261 Bohr) occupying 0.983617 of unit cell:	Completed after 0 iterations at t[s]:   2448.27
ElecMinimize: 	Step increased F by 1.256245e-07, reducing alpha to 2.587887e-03.
	Linear fluid (dielectric constant: 78.4, screening length: 8.12261 Bohr) occupying 0.983617 of unit cell:	Completed after 0 iterations at t[s]:   2484.49
ElecMinimize: 	Step increased F by 1.313309e-07, reducing alpha to 2.587887e-04.
ElecMinimize: 	Step failed to reduce F after 3 attempts. Quitting step.
ElecMinimize: 	Undoing step.
	Linear fluid (dielectric constant: 78.4, screening length: 8.12261 Bohr) occupying 0.983617 of unit cell:	Completed after 0 iterations at t[s]:   2520.69
ElecMinimize: 	Step failed: resetting search direction.
	FillingsUpdate:  mu: -0.049997339  nElectrons: 16.000000  magneticMoment: [ Abs: 0.00000  Tot: -0.00000 ]
	SubspaceRotationAdjust: set factor to 1.27
ElecMinimize: Iter:   5  F: -37.882396271389489  |grad|_K:  1.523e-07  alpha:  2.588e-04
	Linear fluid (dielectric constant: 78.4, screening length: 8.12261 Bohr) occupying 0.983617 of unit cell:	Completed after 0 iterations at t[s]:   2557.94
	Linear fluid (dielectric constant: 78.4, screening length: 8.12261 Bohr) occupying 0.983617 of unit cell:	Completed after 0 iterations at t[s]:   2580.83
	FillingsUpdate:  mu: -0.049997197  nElectrons: 16.000000  magneticMoment: [ Abs: 0.00000  Tot: -0.00000 ]
	SubspaceRotationAdjust: set factor to 1.57
ElecMinimize: Iter:   6  F: -37.882396370043544  |grad|_K:  7.219e-08  alpha:  5.128e-01  linmin:  8.327e-08  t[s]:   2602.97
	Linear fluid (dielectric constant: 78.4, screening length: 8.12261 Bohr) occupying 0.983617 of unit cell:	Completed after 0 iterations at t[s]:   2618.05
	Linear fluid (dielectric constant: 78.4, screening length: 8.12261 Bohr) occupying 0.983617 of unit cell:	Completed after 0 iterations at t[s]:   2641.04
	FillingsUpdate:  mu: -0.049997381  nElectrons: 16.000000  magneticMoment: [ Abs: 0.00000  Tot: +0.00000 ]
	SubspaceRotationAdjust: set factor to 1.56
ElecMinimize: Iter:   7  F: -37.882396403307389  |grad|_K:  3.234e-08  alpha:  7.696e-01  linmin: -2.904e-07  t[s]:   2663.17
ElecMinimize: Converged (|Delta F|<1.000000e-07 for 2 iters).
Setting wave functions to eigenvectors of Hamiltonian
Converging empty states (this may take a while): |deigs|: 2.638e-06

Computing DFT-D3 correction:
# coordination-number C 2.000
# coordination-number O 1.011 1.011
# diagonal-C6 C 29.49
# diagonal-C6 O 12.80 12.80
EvdW_6 =   -0.000008
EvdW_8 =   -0.000079
Completed 2 of 10 configurations.

Computing DFT-D3 correction:
# coordination-number C 2.000
# coordination-number O 1.011 1.011
# diagonal-C6 C 29.49
# diagonal-C6 O 12.80 12.80
EvdW_6 =   -0.000008
EvdW_8 =   -0.000079

-------- Electronic minimization -----------
	Linear fluid (dielectric constant: 78.4, screening length: 8.12261 Bohr) occupying 0.983617 of unit cell:	Completed after 5 iterations at t[s]:   2751.31
	FillingsUpdate:  mu: -0.049861017  nElectrons: 16.000000  magneticMoment: [ Abs: 0.00000  Tot: -0.00000 ]
ElecMinimize: Iter:   0  F: -37.882186841115569  |grad|_K:  4.978e-06  alpha:  1.000e+00
	Linear fluid (dielectric constant: 78.4, screening length: 8.12261 Bohr) occupying 0.983617 of unit cell:	Completed after 6 iterations at t[s]:   2802.27
	Linear fluid (dielectric constant: 78.4, screening length: 8.12261 Bohr) occupying 0.983617 of unit cell:	Completed after 6 iterations at t[s]:   2837.95
	FillingsUpdate:  mu: -0.049865262  nElectrons: 16.000000  magneticMoment: [ Abs: 0.00000  Tot: +0.00000 ]
	SubspaceRotationAdjust: set factor to 1.15
ElecMinimize: Iter:   1  F: -37.882263695560091  |grad|_K:  3.273e-06  alpha:  3.703e-01  linmin: -1.036e-05  t[s]:   2859.98
	Linear fluid (dielectric constant: 78.4, screening length: 8.12261 Bohr) occupying 0.983617 of unit cell:	Completed after 3 iterations at t[s]:   2882.67
	Linear fluid (dielectric constant: 78.4, screening length: 8.12261 Bohr) occupying 0.983617 of unit cell:	Completed after 1 iterations at t[s]:   2909.05
	FillingsUpdate:  mu: -0.049865938  nElectrons: 16.000000  magneticMoment: [ Abs: 0.00000  Tot: -0.00000 ]
	SubspaceRotationAdjust: set factor to 0.781
ElecMinimize: Iter:   2  F: -37.882291387524091  |grad|_K:  1.225e-06  alpha:  3.128e-01  linmin:  1.306e-04  t[s]:   2931.04
	Linear fluid (dielectric constant: 78.4, screening length: 8.12261 Bohr) occupying 0.983617 of unit cell:	Completed after 1 iterations at t[s]:   2949.77
	Linear fluid (dielectric constant: 78.4, screening length: 8.12261 Bohr) occupying 0.983617 of unit cell:	Completed after 2 iterations at t[s]:   2978.17
	FillingsUpdate:  mu: -0.049862164  nElectrons: 16.000000  magneticMoment: [ Abs: 0.00000  Tot: +0.00000 ]
	SubspaceRotationAdjust: set factor to 0.789
ElecMinimize: Iter:   3  F: -37.882299884638826  |grad|_K:  6.002e-07  alpha:  6.847e-01  linmin: -7.314e-04  t[s]:   3000.16
	Linear fluid (dielectric constant: 78.4, screening length: 8.12261 Bohr) occupying 0.983617 of unit cell:	Completed after 0 iterations at t[s]:   3015.26
	Linear fluid (dielectric constant: 78.4, screening length: 8.12261 Bohr) occupying 0.983617 of unit cell:	Completed after 0 iterations at t[s]:   3038.17
	FillingsUpdate:  mu: -0.049861461  nElectrons: 16.000000  magneticMoment: [ Abs: 0.00000  Tot: +0.00000 ]
	SubspaceRotationAdjust: set factor to 0.897
ElecMinimize: Iter:   4  F: -37.882302101296510  |grad|_K:  2.843e-07  alpha:  7.098e-01  linmin: -8.754e-08  t[s]:   3060.25
	Linear fluid (dielectric constant: 78.4, screening length: 8.12261 Bohr) occupying 0.983617 of unit cell:	Completed after 0 iterations at t[s]:   3075.38
	Linear fluid (dielectric constant: 78.4, screening length: 8.12261 Bohr) occupying 0.983617 of unit cell:	Completed after 0 iterations at t[s]:   3098.37
	FillingsUpdate:  mu: -0.049860629  nElectrons: 16.000000  magneticMoment: [ Abs: 0.00000  Tot: +0.00000 ]
	SubspaceRotationAdjust: set factor to 0.997
ElecMinimize: Iter:   5  F: -37.882302580504486  |grad|_K:  1.407e-07  alpha:  7.149e-01  linmin: -1.286e-07  t[s]:   3120.45
	Linear fluid (dielectric constant: 78.4, screening length: 8.12261 Bohr) occupying 0.983617 of unit cell:	Completed after 0 iterations at t[s]:   3135.62
	Linear fluid (dielectric constant: 78.4, screening length: 8.12261 Bohr) occupying 0.983617 of unit cell:	Completed after 0 iterations at t[s]:   3158.50
	FillingsUpdate:  mu: -0.049860028  nElectrons: 16.000000  magneticMoment: [ Abs: 0.00000  Tot: +0.00000 ]
	SubspaceRotationAdjust: set factor to 1.07
ElecMinimize: Iter:   6  F: -37.882302690611112  |grad|_K:  6.013e-08  alpha:  6.705e-01  linmin: -4.816e-08  t[s]:   3180.59
	Linear fluid (dielectric constant: 78.4, screening length: 8.12261 Bohr) occupying 0.983617 of unit cell:	Completed after 0 iterations at t[s]:   3195.75
	Linear fluid (dielectric constant: 78.4, screening length: 8.12261 Bohr) occupying 0.983617 of unit cell:	Completed after 0 iterations at t[s]:   3218.53
	FillingsUpdate:  mu: -0.049859634  nElectrons: 16.000000  magneticMoment: [ Abs: 0.00000  Tot: +0.00000 ]
	SubspaceRotationAdjust: set factor to 1.14
ElecMinimize: Iter:   7  F: -37.882302713779971  |grad|_K:  3.108e-08  alpha:  7.726e-01  linmin: -1.735e-06  t[s]:   3240.80
	Linear fluid (dielectric constant: 78.4, screening length: 8.12261 Bohr) occupying 0.983617 of unit cell:	Completed after 0 iterations at t[s]:   3255.96
	Linear fluid (dielectric constant: 78.4, screening length: 8.12261 Bohr) occupying 0.983617 of unit cell:	Completed after 0 iterations at t[s]:   3278.75
	FillingsUpdate:  mu: -0.049859419  nElectrons: 16.000000  magneticMoment: [ Abs: 0.00000  Tot: +0.00000 ]
	SubspaceRotationAdjust: set factor to 1.18
ElecMinimize: Iter:   8  F: -37.882302719994385  |grad|_K:  1.548e-08  alpha:  7.758e-01  linmin:  3.590e-07  t[s]:   3300.99
ElecMinimize: Converged (|Delta F|<1.000000e-07 for 2 iters).
Setting wave functions to eigenvectors of Hamiltonian
Converging empty states (this may take a while): |deigs|: 1.216e-06

Computing DFT-D3 correction:
# coordination-number C 2.000
# coordination-number O 1.011 1.011
# diagonal-C6 C 29.49
# diagonal-C6 O 12.80 12.80
EvdW_6 =   -0.000008
EvdW_8 =   -0.000079
Completed 3 of 10 configurations.

Computing DFT-D3 correction:
# coordination-number C 2.000
# coordination-number O 1.011 1.011
# diagonal-C6 C 29.49
# diagonal-C6 O 12.80 12.80
EvdW_6 =   -0.000008
EvdW_8 =   -0.000079

-------- Electronic minimization -----------
	Linear fluid (dielectric constant: 78.4, screening length: 8.12261 Bohr) occupying 0.983617 of unit cell:	Completed after 6 iterations at t[s]:   3398.43
	FillingsUpdate:  mu: -0.050050737  nElectrons: 16.000000  magneticMoment: [ Abs: 0.00000  Tot: -0.00000 ]
ElecMinimize: Iter:   0  F: -37.882282625353291  |grad|_K:  4.681e-06  alpha:  1.000e+00
	Linear fluid (dielectric constant: 78.4, screening length: 8.12261 Bohr) occupying 0.983617 of unit cell:	Completed after 6 iterations at t[s]:   3449.05
	Linear fluid (dielectric constant: 78.4, screening length: 8.12261 Bohr) occupying 0.983617 of unit cell:	Completed after 3 iterations at t[s]:   3479.28
	FillingsUpdate:  mu: -0.050030477  nElectrons: 16.000000  magneticMoment: [ Abs: 0.00000  Tot: -0.00000 ]
	SubspaceRotationAdjust: set factor to 0.951
ElecMinimize: Iter:   1  F: -37.882363869905113  |grad|_K:  2.726e-06  alpha:  4.425e-01  linmin:  1.408e-05  t[s]:   3501.12
	Linear fluid (dielectric constant: 78.4, screening length: 8.12261 Bohr) occupying 0.983617 of unit cell:	Completed after 3 iterations at t[s]:   3523.60
	Linear fluid (dielectric constant: 78.4, screening length: 8.12261 Bohr) occupying 0.983617 of unit cell:	Completed after 2 iterations at t[s]:   3551.97
	FillingsUpdate:  mu: -0.050023081  nElectrons: 16.000000  magneticMoment: [ Abs: 0.00000  Tot: +0.00000 ]
	SubspaceRotationAdjust: set factor to 0.738
ElecMinimize: Iter:   2  F: -37.882384518209477  |grad|_K:  1.161e-06  alpha:  3.434e-01  linmin: -3.684e-05  t[s]:   3573.80
	Linear fluid (dielectric constant: 78.4, screening length: 8.12261 Bohr) occupying 0.983617 of unit cell:	Completed after 0 iterations at t[s]:   3588.73
	Linear fluid (dielectric constant: 78.4, screening length: 8.12261 Bohr) occupying 0.983617 of unit cell:	Completed after 2 iterations at t[s]:   3617.39
	FillingsUpdate:  mu: -0.050023470  nElectrons: 16.000000  magneticMoment: [ Abs: 0.00000  Tot: -0.00000 ]
	SubspaceRotationAdjust: set factor to 0.732
ElecMinimize: Iter:   3  F: -37.882392105928531  |grad|_K:  6.662e-07  alpha:  7.890e-01  linmin:  1.137e-03  t[s]:   3639.50
	Linear fluid (dielectric constant: 78.4, screening length: 8.12261 Bohr) occupying 0.983617 of unit cell:	Completed after 0 iterations at t[s]:   3654.63
	Linear fluid (dielectric constant: 78.4, screening length: 8.12261 Bohr) occupying 0.983617 of unit cell:	Completed after 0 iterations at t[s]:   3677.40
	FillingsUpdate:  mu: -0.050022723  nElectrons: 16.000000  magneticMoment: [ Abs: 0.00000  Tot: -0.00000 ]
	SubspaceRotationAdjust: set factor to 0.87
ElecMinimize: Iter:   4  F: -37.882393961420476  |grad|_K:  2.865e-07  alpha:  5.795e-01  linmin:  5.738e-07  t[s]:   3699.66
	Linear fluid (dielectric constant: 78.4, screening length: 8.12261 Bohr) occupying 0.983617 of unit cell:	Completed after 0 iterations at t[s]:   3714.71
	Linear fluid (dielectric constant: 78.4, screening length: 8.12261 Bohr) occupying 0.983617 of unit cell:	Completed after 0 iterations at t[s]:   3737.56
	FillingsUpdate:  mu: -0.050024149  nElectrons: 16.000000  magneticMoment: [ Abs: 0.00000  Tot: -0.00000 ]
	SubspaceRotationAdjust: set factor to 1.12
ElecMinimize: Iter:   5  F: -37.882394492828055  |grad|_K:  1.660e-07  alpha:  7.804e-01  linmin:  2.247e-07  t[s]:   3759.74
	Linear fluid (dielectric constant: 78.4, screening length: 8.12261 Bohr) occupying 0.983616 of unit cell:	Completed after 1 iterations at t[s]:   3778.54
	Linear fluid (dielectric constant: 78.4, screening length: 8.12261 Bohr) occupying 0.983617 of unit cell:	Completed after 0 iterations at t[s]:   3801.18
ElecMinimize: 	Step increased F by 2.757470e-07, reducing alpha to 1.907852e-02.
	Linear fluid (dielectric constant: 78.4, screening length: 8.12261 Bohr) occupying 0.983617 of unit cell:	Completed after 0 iterations at t[s]:   3837.36
ElecMinimize: 	Step increased F by 2.922902e-07, reducing alpha to 1.907852e-03.
	Linear fluid (dielectric constant: 78.4, screening length: 8.12261 Bohr) occupying 0.983617 of unit cell:	Completed after 0 iterations at t[s]:   3873.59
ElecMinimize: 	Step increased F by 2.950584e-07, reducing alpha to 1.907852e-04.
ElecMinimize: 	Step failed to reduce F after 3 attempts. Quitting step.
ElecMinimize: 	Undoing step.
	Linear fluid (dielectric constant: 78.4, screening length: 8.12261 Bohr) occupying 0.983617 of unit cell:	Completed after 0 iterations at t[s]:   3909.76
ElecMinimize: 	Step failed: resetting search direction.
	FillingsUpdate:  mu: -0.050034502  nElectrons: 16.000000  magneticMoment: [ Abs: 0.00000  Tot: +0.00000 ]
	SubspaceRotationAdjust: set factor to 1.06
ElecMinimize: Iter:   6  F: -37.882394197738030  |grad|_K:  3.155e-07  alpha:  1.908e-04
	Linear fluid (dielectric constant: 78.4, screening length: 8.12261 Bohr) occupying 0.983617 of unit cell:	Completed after 2 iterations at t[s]:   3952.72
	Linear fluid (dielectric constant: 78.4, screening length: 8.12261 Bohr) occupying 0.983617 of unit cell:	Completed after 0 iterations at t[s]:   3977.53
	FillingsUpdate:  mu: -0.050019304  nElectrons: 16.000000  magneticMoment: [ Abs: 0.00000  Tot: +0.00000 ]
	SubspaceRotationAdjust: set factor to 0.725
ElecMinimize: Iter:   7  F: -37.882394581912187  |grad|_K:  3.258e-07  alpha:  3.132e-01  linmin:  2.647e-03  t[s]:   3999.48
	Linear fluid (dielectric constant: 78.4, screening length: 8.12261 Bohr) occupying 0.983617 of unit cell:	Completed after 0 iterations at t[s]:   4014.55
	Linear fluid (dielectric constant: 78.4, screening length: 8.12261 Bohr) occupying 0.983617 of unit cell:	Completed after 0 iterations at t[s]:   4037.44
	FillingsUpdate:  mu: -0.050019908  nElectrons: 16.000000  magneticMoment: [ Abs: 0.00000  Tot: +0.00000 ]
	SubspaceRotationAdjust: set factor to 0.805
ElecMinimize: Iter:   8  F: -37.882394655503902  |grad|_K:  2.861e-07  alpha:  2.783e-01  linmin:  1.214e-08  t[s]:   4059.64
	Linear fluid (dielectric constant: 78.4, screening length: 8.12261 Bohr) occupying 0.983617 of unit cell:	Completed after 1 iterations at t[s]:   4078.57
	Linear fluid (dielectric constant: 78.4, screening length: 8.12261 Bohr) occupying 0.983617 of unit cell:	Completed after 0 iterations at t[s]:   4103.11
ElecMinimize: 	Step increased F by 2.277317e-07, reducing alpha to 7.358080e-03.
	Linear fluid (dielectric constant: 78.4, screening length: 8.12261 Bohr) occupying 0.983617 of unit cell:	Completed after 0 iterations at t[s]:   4139.05
ElecMinimize: 	Step increased F by 1.889838e-07, reducing alpha to 7.358080e-04.
	Linear fluid (dielectric constant: 78.4, screening length: 8.12261 Bohr) occupying 0.983617 of unit cell:	Completed after 0 iterations at t[s]:   4175.09
ElecMinimize: 	Step increased F by 1.855339e-07, reducing alpha to 7.358080e-05.
ElecMinimize: 	Step failed to reduce F after 3 attempts. Quitting step.
ElecMinimize: 	Undoing step.
	Linear fluid (dielectric constant: 78.4, screening length: 8.12261 Bohr) occupying 0.983617 of unit cell:	Completed after 0 iterations at t[s]:   4211.29
ElecMinimize: 	Step failed: resetting search direction.
	FillingsUpdate:  mu: -0.050032174  nElectrons: 16.000000  magneticMoment: [ Abs: 0.00000  Tot: -0.00000 ]
	SubspaceRotationAdjust: set factor to 0.499
ElecMinimize: Iter:   9  F: -37.882394470007817  |grad|_K:  1.510e-07  alpha:  7.358e-05
	Linear fluid (dielectric constant: 78.4, screening length: 8.12261 Bohr) occupying 0.983617 of unit cell:	Completed after 0 iterations at t[s]:   4248.62
	Linear fluid (dielectric constant: 78.4, screening length: 8.12261 Bohr) occupying 0.983617 of unit cell:	Completed after 0 iterations at t[s]:   4271.32
	FillingsUpdate:  mu: -0.050030842  nElectrons: 16.000000  magneticMoment: [ Abs: 0.00000  Tot: -0.00000 ]
	SubspaceRotationAdjust: set factor to 0.69
ElecMinimize: Iter:  10  F: -37.882394621349391  |grad|_K:  1.070e-07  alpha:  8.002e-01  linmin: -3.897e-07  t[s]:   4293.49
	Linear fluid (dielectric constant: 78.4, screening length: 8.12261 Bohr) occupying 0.983617 of unit cell:	Completed after 2 iterations at t[s]:   4314.11
	Linear fluid (dielectric constant: 78.4, screening length: 8.12261 Bohr) occupying 0.983617 of unit cell:	Completed after 0 iterations at t[s]:   4336.91
ElecMinimize: 	Step increased F by 3.755881e-07, reducing alpha to 5.139890e-03.
	Linear fluid (dielectric constant: 78.4, screening length: 8.12261 Bohr) occupying 0.983617 of unit cell:	Completed after 0 iterations at t[s]:   4373.04
ElecMinimize: 	Step increased F by 3.388311e-07, reducing alpha to 5.139890e-04.
	Linear fluid (dielectric constant: 78.4, screening length: 8.12261 Bohr) occupying 0.983617 of unit cell:	Completed after 0 iterations at t[s]:   4409.15
ElecMinimize: 	Step increased F by 3.351770e-07, reducing alpha to 5.139890e-05.
ElecMinimize: 	Step failed to reduce F after 3 attempts. Quitting step.
ElecMinimize: 	Undoing step.
	Linear fluid (dielectric constant: 78.4, screening length: 8.12261 Bohr) occupying 0.983617 of unit cell:	Completed after 0 iterations at t[s]:   4445.37
ElecMinimize: 	Step failed: resetting search direction.
	FillingsUpdate:  mu: -0.050015914  nElectrons: 16.000000  magneticMoment: [ Abs: 0.00000  Tot: +0.00000 ]
	SubspaceRotationAdjust: set factor to 0.662
ElecMinimize: Iter:  11  F: -37.882394286213319  |grad|_K:  5.451e-07  alpha:  5.140e-05
	Linear fluid (dielectric constant: 78.4, screening length: 8.12261 Bohr) occupying 0.983616 of unit cell:	Completed after 2 iterations at t[s]:   4488.20
	Linear fluid (dielectric constant: 78.4, screening length: 8.12261 Bohr) occupying 0.983617 of unit cell:	Completed after 2 iterations at t[s]:   4516.60
	FillingsUpdate:  mu: -0.050021612  nElectrons: 16.000000  magneticMoment: [ Abs: 0.00000  Tot: -0.00000 ]
	SubspaceRotationAdjust: set factor to 0.303
ElecMinimize: Iter:  12  F: -37.882394496592468  |grad|_K:  1.481e-07  alpha:  2.222e-01  linmin:  4.581e-03  t[s]:   4538.57
	Linear fluid (dielectric constant: 78.4, screening length: 8.12261 Bohr) occupying 0.983617 of unit cell:	Completed after 0 iterations at t[s]:   4553.59
ElecMinimize: 	Predicted alpha/alphaT>3.000000, increasing alphaT to 6.665828e-01.
	Linear fluid (dielectric constant: 78.4, screening length: 8.12261 Bohr) occupying 0.983617 of unit cell:	Completed after 0 iterations at t[s]:   4576.43
	Linear fluid (dielectric constant: 78.4, screening length: 8.12261 Bohr) occupying 0.983617 of unit cell:	Completed after 0 iterations at t[s]:   4601.10
	FillingsUpdate:  mu: -0.050024053  nElectrons: 16.000000  magneticMoment: [ Abs: 0.00000  Tot: +0.00000 ]
	SubspaceRotationAdjust: set factor to 0.349
ElecMinimize: Iter:  13  F: -37.882394514864117  |grad|_K:  1.161e-07  alpha:  1.155e+00  linmin:  1.681e-03  t[s]:   4623.14
	Linear fluid (dielectric constant: 78.4, screening length: 8.12261 Bohr) occupying 0.983617 of unit cell:	Completed after 2 iterations at t[s]:   4643.84
	Linear fluid (dielectric constant: 78.4, screening length: 8.12261 Bohr) occupying 0.983617 of unit cell:	Completed after 0 iterations at t[s]:   4666.49
ElecMinimize: 	Step increased F by 3.023885e-07, reducing alpha to 1.231233e-02.
	Linear fluid (dielectric constant: 78.4, screening length: 8.12261 Bohr) occupying 0.983617 of unit cell:	Completed after 0 iterations at t[s]:   4702.83
ElecMinimize: 	Step increased F by 2.763073e-07, reducing alpha to 1.231233e-03.
	Linear fluid (dielectric constant: 78.4, screening length: 8.12261 Bohr) occupying 0.983617 of unit cell:	Completed after 0 iterations at t[s]:   4738.87
ElecMinimize: 	Step increased F by 2.738820e-07, reducing alpha to 1.231233e-04.
ElecMinimize: 	Step failed to reduce F after 3 attempts. Quitting step.
ElecMinimize: 	Undoing step.
	Linear fluid (dielectric constant: 78.4, screening length: 8.12261 Bohr) occupying 0.983617 of unit cell:	Completed after 0 iterations at t[s]:   4775.21
ElecMinimize: 	Step failed: resetting search direction.
	FillingsUpdate:  mu: -0.050025771  nElectrons: 16.000000  magneticMoment: [ Abs: 0.00000  Tot: -0.00000 ]
	SubspaceRotationAdjust: set factor to 0.343
ElecMinimize: Iter:  14  F: -37.882394241008569  |grad|_K:  4.399e-07  alpha:  1.231e-04
	Linear fluid (dielectric constant: 78.4, screening length: 8.12261 Bohr) occupying 0.983617 of unit cell:	Completed after 2 iterations at t[s]:   4817.83
	Linear fluid (dielectric constant: 78.4, screening length: 8.12261 Bohr) occupying 0.983617 of unit cell:	Completed after 2 iterations at t[s]:   4846.42
	FillingsUpdate:  mu: -0.050029021  nElectrons: 16.000000  magneticMoment: [ Abs: 0.00000  Tot: +0.00000 ]
	SubspaceRotationAdjust: set factor to 0.232
ElecMinimize: Iter:  15  F: -37.882394468772958  |grad|_K:  9.776e-08  alpha:  2.795e-01  linmin:  5.402e-03  t[s]:   4868.59
	Linear fluid (dielectric constant: 78.4, screening length: 8.12261 Bohr) occupying 0.983617 of unit cell:	Completed after 0 iterations at t[s]:   4883.65
	Linear fluid (dielectric constant: 78.4, screening length: 8.12261 Bohr) occupying 0.983617 of unit cell:	Completed after 0 iterations at t[s]:   4906.44
	FillingsUpdate:  mu: -0.050029020  nElectrons: 16.000000  magneticMoment: [ Abs: 0.00000  Tot: +0.00000 ]
	SubspaceRotationAdjust: set factor to 0.269
ElecMinimize: Iter:  16  F: -37.882394514949638  |grad|_K:  5.515e-08  alpha:  7.054e-01  linmin: -3.151e-06  t[s]:   4928.63
	Linear fluid (dielectric constant: 78.4, screening length: 8.12261 Bohr) occupying 0.983617 of unit cell:	Completed after 0 iterations at t[s]:   4943.88
	Linear fluid (dielectric constant: 78.4, screening length: 8.12261 Bohr) occupying 0.983617 of unit cell:	Completed after 0 iterations at t[s]:   4966.72
	FillingsUpdate:  mu: -0.050029455  nElectrons: 16.000000  magneticMoment: [ Abs: 0.00000  Tot: +0.00000 ]
	SubspaceRotationAdjust: set factor to 0.351
ElecMinimize: Iter:  17  F: -37.882394538313918  |grad|_K:  3.464e-08  alpha:  9.263e-01  linmin:  2.380e-06  t[s]:   4988.92
ElecMinimize: Converged (|Delta F|<1.000000e-07 for 2 iters).
Setting wave functions to eigenvectors of Hamiltonian
Converging empty states (this may take a while): |deigs|: 1.294e-06

Computing DFT-D3 correction:
# coordination-number C 2.000
# coordination-number O 1.011 1.011
# diagonal-C6 C 29.49
# diagonal-C6 O 12.80 12.80
EvdW_6 =   -0.000008
EvdW_8 =   -0.000079
Completed 4 of 10 configurations.

Computing DFT-D3 correction:
# coordination-number C 2.000
# coordination-number O 1.011 1.011
# diagonal-C6 C 29.49
# diagonal-C6 O 12.80 12.80
EvdW_6 =   -0.000008
EvdW_8 =   -0.000079

-------- Electronic minimization -----------
	Linear fluid (dielectric constant: 78.4, screening length: 8.12261 Bohr) occupying 0.983617 of unit cell:	Completed after 4 iterations at t[s]:   5068.65
	FillingsUpdate:  mu: -0.049899521  nElectrons: 16.000000  magneticMoment: [ Abs: 0.00000  Tot: +0.00000 ]
ElecMinimize: Iter:   0  F: -37.882356505447909  |grad|_K:  2.727e-06  alpha:  1.000e+00
	Linear fluid (dielectric constant: 78.4, screening length: 8.12261 Bohr) occupying 0.983617 of unit cell:	Completed after 2 iterations at t[s]:   5112.23
	Linear fluid (dielectric constant: 78.4, screening length: 8.12261 Bohr) occupying 0.983617 of unit cell:	Completed after 3 iterations at t[s]:   5142.41
	FillingsUpdate:  mu: -0.049906753  nElectrons: 16.000000  magneticMoment: [ Abs: 0.00000  Tot: -0.00000 ]
	SubspaceRotationAdjust: set factor to 0.395
ElecMinimize: Iter:   1  F: -37.882393574342288  |grad|_K:  9.469e-07  alpha:  5.996e-01  linmin:  1.387e-04  t[s]:   5164.76
	Linear fluid (dielectric constant: 78.4, screening length: 8.12261 Bohr) occupying 0.983617 of unit cell:	Completed after 0 iterations at t[s]:   5179.87
	Linear fluid (dielectric constant: 78.4, screening length: 8.12261 Bohr) occupying 0.983617 of unit cell:	Completed after 1 iterations at t[s]:   5206.43
	FillingsUpdate:  mu: -0.049901663  nElectrons: 16.000000  magneticMoment: [ Abs: 0.00000  Tot: -0.00000 ]
	SubspaceRotationAdjust: set factor to 0.462
ElecMinimize: Iter:   2  F: -37.882398762653501  |grad|_K:  6.408e-07  alpha:  8.032e-01  linmin:  1.237e-03  t[s]:   5228.54
	Linear fluid (dielectric constant: 78.4, screening length: 8.12261 Bohr) occupying 0.983617 of unit cell:	Completed after 1 iterations at t[s]:   5247.39
	Linear fluid (dielectric constant: 78.4, screening length: 8.12261 Bohr) occupying 0.983617 of unit cell:	Completed after 0 iterations at t[s]:   5270.17
	FillingsUpdate:  mu: -0.049910213  nElectrons: 16.000000  magneticMoment: [ Abs: 0.00000  Tot: -0.00000 ]
	SubspaceRotationAdjust: set factor to 0.612
ElecMinimize: Iter:   3  F: -37.882400635950944  |grad|_K:  3.081e-07  alpha:  6.300e-01  linmin:  5.772e-05  t[s]:   5292.38
	Linear fluid (dielectric constant: 78.4, screening length: 8.12261 Bohr) occupying 0.983617 of unit cell:	Completed after 0 iterations at t[s]:   5307.53
	Linear fluid (dielectric constant: 78.4, screening length: 8.12261 Bohr) occupying 0.983617 of unit cell:	Completed after 0 iterations at t[s]:   5330.29
	FillingsUpdate:  mu: -0.049910229  nElectrons: 16.000000  magneticMoment: [ Abs: 0.00000  Tot: +0.00000 ]
	SubspaceRotationAdjust: set factor to 0.785
ElecMinimize: Iter:   4  F: -37.882401233909576  |grad|_K:  1.909e-07  alpha:  7.640e-01  linmin:  1.955e-08  t[s]:   5352.28
	Linear fluid (dielectric constant: 78.4, screening length: 8.12261 Bohr) occupying 0.983617 of unit cell:	Completed after 0 iterations at t[s]:   5367.46
	Linear fluid (dielectric constant: 78.4, screening length: 8.12261 Bohr) occupying 0.983617 of unit cell:	Completed after 0 iterations at t[s]:   5390.27
	FillingsUpdate:  mu: -0.049910124  nElectrons: 16.000000  magneticMoment: [ Abs: 0.00000  Tot: +0.00000 ]
	SubspaceRotationAdjust: set factor to 0.951
ElecMinimize: Iter:   5  F: -37.882401431026700  |grad|_K:  9.419e-08  alpha:  6.524e-01  linmin:  7.639e-08  t[s]:   5412.40
	Linear fluid (dielectric constant: 78.4, screening length: 8.12261 Bohr) occupying 0.983617 of unit cell:	Completed after 0 iterations at t[s]:   5429.37
	Linear fluid (dielectric constant: 78.4, screening length: 8.12261 Bohr) occupying 0.983617 of unit cell:	Completed after 0 iterations at t[s]:   5452.19
ElecMinimize: 	Step increased F by 4.731287e-08, reducing alpha to 2.392924e-02.
	Linear fluid (dielectric constant: 78.4, screening length: 8.12261 Bohr) occupying 0.983617 of unit cell:	Completed after 0 iterations at t[s]:   5488.40
ElecMinimize: 	Step increased F by 7.011544e-08, reducing alpha to 2.392924e-03.
	Linear fluid (dielectric constant: 78.4, screening length: 8.12261 Bohr) occupying 0.983617 of unit cell:	Completed after 0 iterations at t[s]:   5524.49
ElecMinimize: 	Step increased F by 7.300999e-08, reducing alpha to 2.392924e-04.
ElecMinimize: 	Step failed to reduce F after 3 attempts. Quitting step.
ElecMinimize: 	Undoing step.
	Linear fluid (dielectric constant: 78.4, screening length: 8.12261 Bohr) occupying 0.983617 of unit cell:	Completed after 0 iterations at t[s]:   5560.71
ElecMinimize: 	Step failed: resetting search direction.
	FillingsUpdate:  mu: -0.049904453  nElectrons: 16.000000  magneticMoment: [ Abs: 0.00000  Tot: +0.00000 ]
	SubspaceRotationAdjust: set factor to 1.01
ElecMinimize: Iter:   6  F: -37.882401357982971  |grad|_K:  9.201e-08  alpha:  2.393e-04
	Linear fluid (dielectric constant: 78.4, screening length: 8.12261 Bohr) occupying 0.983617 of unit cell:	Completed after 0 iterations at t[s]:   5597.93
	Linear fluid (dielectric constant: 78.4, screening length: 8.12261 Bohr) occupying 0.983617 of unit cell:	Completed after 0 iterations at t[s]:   5620.69
	FillingsUpdate:  mu: -0.049904521  nElectrons: 16.000000  magneticMoment: [ Abs: 0.00000  Tot: -0.00000 ]
	SubspaceRotationAdjust: set factor to 1.16
ElecMinimize: Iter:   7  F: -37.882401398896640  |grad|_K:  4.211e-08  alpha:  5.826e-01  linmin: -2.808e-09  t[s]:   5642.81
	Linear fluid (dielectric constant: 78.4, screening length: 8.12261 Bohr) occupying 0.983617 of unit cell:	Completed after 0 iterations at t[s]:   5657.89
	Linear fluid (dielectric constant: 78.4, screening length: 8.12261 Bohr) occupying 0.983617 of unit cell:	Completed after 0 iterations at t[s]:   5680.68
	FillingsUpdate:  mu: -0.049904646  nElectrons: 16.000000  magneticMoment: [ Abs: 0.00000  Tot: +0.00000 ]
	SubspaceRotationAdjust: set factor to 1.19
ElecMinimize: Iter:   8  F: -37.882401409447624  |grad|_K:  2.219e-08  alpha:  7.174e-01  linmin: -1.496e-06  t[s]:   5702.78
ElecMinimize: Converged (|Delta F|<1.000000e-07 for 2 iters).
Setting wave functions to eigenvectors of Hamiltonian
Converging empty states (this may take a while): |deigs|: 2.340e-06

Computing DFT-D3 correction:
# coordination-number C 2.000
# coordination-number O 1.011 1.011
# diagonal-C6 C 29.49
# diagonal-C6 O 12.80 12.80
EvdW_6 =   -0.000008
EvdW_8 =   -0.000079
Completed 5 of 10 configurations.

Computing DFT-D3 correction:
# coordination-number C 2.000
# coordination-number O 1.010 1.010
# diagonal-C6 C 29.49
# diagonal-C6 O 12.80 12.80
EvdW_6 =   -0.000008
EvdW_8 =   -0.000080

-------- Electronic minimization -----------
	Linear fluid (dielectric constant: 78.4, screening length: 8.12261 Bohr) occupying 0.983603 of unit cell:	Completed after 2 iterations at t[s]:   5793.54
	FillingsUpdate:  mu: -0.050099950  nElectrons: 16.000000  magneticMoment: [ Abs: 0.00000  Tot: +0.00000 ]
ElecMinimize: Iter:   0  F: -37.882314525013427  |grad|_K:  2.702e-06  alpha:  1.000e+00
	Linear fluid (dielectric constant: 78.4, screening length: 8.12261 Bohr) occupying 0.983601 of unit cell:	Completed after 3 iterations at t[s]:   5838.80
	Linear fluid (dielectric constant: 78.4, screening length: 8.12261 Bohr) occupying 0.983602 of unit cell:	Completed after 2 iterations at t[s]:   5867.04
	FillingsUpdate:  mu: -0.050218128  nElectrons: 16.000000  magneticMoment: [ Abs: 0.00000  Tot: -0.00000 ]
	SubspaceRotationAdjust: set factor to 1.27
ElecMinimize: Iter:   1  F: -37.882349769993660  |grad|_K:  1.139e-06  alpha:  5.828e-01  linmin:  1.361e-05  t[s]:   5888.99
	Linear fluid (dielectric constant: 78.4, screening length: 8.12261 Bohr) occupying 0.983600 of unit cell:	Completed after 3 iterations at t[s]:   5911.45
	Linear fluid (dielectric constant: 78.4, screening length: 8.12261 Bohr) occupying 0.983601 of unit cell:	Completed after 0 iterations at t[s]:   5934.11
	FillingsUpdate:  mu: -0.050236773  nElectrons: 16.000000  magneticMoment: [ Abs: 0.00000  Tot: +0.00000 ]
	SubspaceRotationAdjust: set factor to 0.885
ElecMinimize: Iter:   2  F: -37.882354548027145  |grad|_K:  9.456e-07  alpha:  4.174e-01  linmin:  9.340e-04  t[s]:   5956.10
	Linear fluid (dielectric constant: 78.4, screening length: 8.12261 Bohr) occupying 0.983600 of unit cell:	Completed after 1 iterations at t[s]:   5974.95
	Linear fluid (dielectric constant: 78.4, screening length: 8.12261 Bohr) occupying 0.983600 of unit cell:	Completed after 0 iterations at t[s]:   5999.58
	FillingsUpdate:  mu: -0.050221303  nElectrons: 16.000000  magneticMoment: [ Abs: 0.00000  Tot: +0.00000 ]
	SubspaceRotationAdjust: set factor to 0.573
ElecMinimize: Iter:   3  F: -37.882355881916737  |grad|_K:  3.732e-07  alpha:  2.811e-01  linmin: -2.524e-04  t[s]:   6021.76
	Linear fluid (dielectric constant: 78.4, screening length: 8.12261 Bohr) occupying 0.983600 of unit cell:	Completed after 0 iterations at t[s]:   6036.97
	Linear fluid (dielectric constant: 78.4, screening length: 8.12261 Bohr) occupying 0.983600 of unit cell:	Completed after 0 iterations at t[s]:   6059.70
	FillingsUpdate:  mu: -0.050229114  nElectrons: 16.000000  magneticMoment: [ Abs: 0.00000  Tot: +0.00000 ]
	SubspaceRotationAdjust: set factor to 0.81
ElecMinimize: Iter:   4  F: -37.882356780349596  |grad|_K:  2.009e-07  alpha:  7.481e-01  linmin: -5.278e-08  t[s]:   6081.65
	Linear fluid (dielectric constant: 78.4, screening length: 8.12261 Bohr) occupying 0.983600 of unit cell:	Completed after 2 iterations at t[s]:   6102.22
	Linear fluid (dielectric constant: 78.4, screening length: 8.12261 Bohr) occupying 0.983600 of unit cell:	Completed after 0 iterations at t[s]:   6124.96
ElecMinimize: 	Step increased F by 2.850846e-07, reducing alpha to 1.591485e-02.
	Linear fluid (dielectric constant: 78.4, screening length: 8.12261 Bohr) occupying 0.983600 of unit cell:	Completed after 0 iterations at t[s]:   6161.18
ElecMinimize: 	Step increased F by 2.331367e-07, reducing alpha to 1.591485e-03.
	Linear fluid (dielectric constant: 78.4, screening length: 8.12261 Bohr) occupying 0.983600 of unit cell:	Completed after 0 iterations at t[s]:   6197.37
ElecMinimize: 	Step increased F by 2.288740e-07, reducing alpha to 1.591485e-04.
ElecMinimize: 	Step failed to reduce F after 3 attempts. Quitting step.
ElecMinimize: 	Undoing step.
	Linear fluid (dielectric constant: 78.4, screening length: 8.12261 Bohr) occupying 0.983600 of unit cell:	Completed after 0 iterations at t[s]:   6233.61
ElecMinimize: 	Step failed: resetting search direction.
	FillingsUpdate:  mu: -0.050239079  nElectrons: 16.000000  magneticMoment: [ Abs: 0.00000  Tot: +0.00000 ]
	SubspaceRotationAdjust: set factor to 0.758
ElecMinimize: Iter:   5  F: -37.882356551523145  |grad|_K:  4.965e-07  alpha:  1.591e-04
	Linear fluid (dielectric constant: 78.4, screening length: 8.12261 Bohr) occupying 0.983600 of unit cell:	Completed after 2 iterations at t[s]:   6276.35
	Linear fluid (dielectric constant: 78.4, screening length: 8.12261 Bohr) occupying 0.983600 of unit cell:	Completed after 2 iterations at t[s]:   6304.76
	FillingsUpdate:  mu: -0.050232531  nElectrons: 16.000000  magneticMoment: [ Abs: 0.00000  Tot: -0.00000 ]
	SubspaceRotationAdjust: set factor to 0.406
ElecMinimize: Iter:   6  F: -37.882356670919279  |grad|_K:  2.200e-07  alpha:  2.128e-01  linmin:  3.207e-03  t[s]:   6326.61
	Linear fluid (dielectric constant: 78.4, screening length: 8.12261 Bohr) occupying 0.983600 of unit cell:	Completed after 0 iterations at t[s]:   6341.78
ElecMinimize: 	Predicted alpha/alphaT>3.000000, increasing alphaT to 6.383740e-01.
	Linear fluid (dielectric constant: 78.4, screening length: 8.12261 Bohr) occupying 0.983600 of unit cell:	Completed after 0 iterations at t[s]:   6364.59
	Linear fluid (dielectric constant: 78.4, screening length: 8.12261 Bohr) occupying 0.983600 of unit cell:	Completed after 0 iterations at t[s]:   6387.42
	FillingsUpdate:  mu: -0.050234576  nElectrons: 16.000000  magneticMoment: [ Abs: 0.00000  Tot: +0.00000 ]
	SubspaceRotationAdjust: set factor to 0.628
ElecMinimize: Iter:   7  F: -37.882356916505103  |grad|_K:  1.680e-07  alpha:  8.098e-01  linmin: -5.289e-08  t[s]:   6409.62
	Linear fluid (dielectric constant: 78.4, screening length: 8.12261 Bohr) occupying 0.983599 of unit cell:	Completed after 2 iterations at t[s]:   6430.29
	Linear fluid (dielectric constant: 78.4, screening length: 8.12261 Bohr) occupying 0.983600 of unit cell:	Completed after 0 iterations at t[s]:   6453.05
ElecMinimize: 	Step increased F by 9.870469e-08, reducing alpha to 1.246391e-02.
	Linear fluid (dielectric constant: 78.4, screening length: 8.12261 Bohr) occupying 0.983600 of unit cell:	Completed after 0 iterations at t[s]:   6489.29
	FillingsUpdate:  mu: -0.050239262  nElectrons: 16.000000  magneticMoment: [ Abs: 0.00000  Tot: +0.00000 ]
	SubspaceRotationAdjust: set factor to 0.581
ElecMinimize: Iter:   8  F: -37.882356918427391  |grad|_K:  4.646e-07  alpha:  1.246e-02  linmin:  2.361e-03  t[s]:   6511.38
ElecMinimize: 	Bad step direction: g.d > 0.
ElecMinimize: 	Undoing step.
	Linear fluid (dielectric constant: 78.4, screening length: 8.12261 Bohr) occupying 0.983600 of unit cell:	Completed after 0 iterations at t[s]:   6526.35
ElecMinimize: 	Step failed: resetting search direction.
	FillingsUpdate:  mu: -0.050239262  nElectrons: 16.000000  magneticMoment: [ Abs: 0.00000  Tot: -0.00000 ]
	SubspaceRotationAdjust: set factor to 0.808
ElecMinimize: Iter:   9  F: -37.882356918427305  |grad|_K:  4.587e-07  alpha:  0.000e+00
	Linear fluid (dielectric constant: 78.4, screening length: 8.12261 Bohr) occupying 0.983600 of unit cell:	Completed after 0 iterations at t[s]:   6563.57
ElecMinimize: 	Predicted alpha/alphaT>3.000000, increasing alphaT to 3.739174e-02.
	Linear fluid (dielectric constant: 78.4, screening length: 8.12261 Bohr) occupying 0.983600 of unit cell:	Completed after 0 iterations at t[s]:   6586.34
ElecMinimize: 	Predicted alpha/alphaT>3.000000, increasing alphaT to 1.121752e-01.
	Linear fluid (dielectric constant: 78.4, screening length: 8.12261 Bohr) occupying 0.983600 of unit cell:	Completed after 0 iterations at t[s]:   6609.05
ElecMinimize: 	Predicted alpha/alphaT>3.000000, increasing alphaT to 3.365256e-01.
	Linear fluid (dielectric constant: 78.4, screening length: 8.12261 Bohr) occupying 0.983600 of unit cell:	Completed after 2 iterations at t[s]:   6637.38
ElecMinimize: 	Step increased F by 5.263218e-06, reducing alpha to 1.059967e-01.
	Linear fluid (dielectric constant: 78.4, screening length: 8.12261 Bohr) occupying 0.983600 of unit cell:	Completed after 2 iterations at t[s]:   6679.03
ElecMinimize: 	Step increased F by 1.243558e-07, reducing alpha to 1.059967e-02.
	Linear fluid (dielectric constant: 78.4, screening length: 8.12261 Bohr) occupying 0.983600 of unit cell:	Completed after 0 iterations at t[s]:   6715.16
ElecMinimize: 	Step increased F by 1.427864e-07, reducing alpha to 1.059967e-03.
ElecMinimize: 	Step failed to reduce F after 3 attempts. Quitting step.
ElecMinimize: 	Undoing step.
	Linear fluid (dielectric constant: 78.4, screening length: 8.12261 Bohr) occupying 0.983600 of unit cell:	Completed after 0 iterations at t[s]:   6751.28
ElecMinimize: 	Step failed along negative gradient direction.
ElecMinimize: Probably at roundoff error limit. (Stopping)
Setting wave functions to eigenvectors of Hamiltonian
Converging empty states (this may take a while): |deigs|: 8.579e-07

Computing DFT-D3 correction:
# coordination-number C 2.000
# coordination-number O 1.010 1.010
# diagonal-C6 C 29.49
# diagonal-C6 O 12.80 12.80
EvdW_6 =   -0.000008
EvdW_8 =   -0.000080
Completed 6 of 10 configurations.

Computing DFT-D3 correction:
# coordination-number C 2.000
# coordination-number O 1.011 1.011
# diagonal-C6 C 29.49
# diagonal-C6 O 12.80 12.80
EvdW_6 =   -0.000008
EvdW_8 =   -0.000079

-------- Electronic minimization -----------
	Linear fluid (dielectric constant: 78.4, screening length: 8.12261 Bohr) occupying 0.983613 of unit cell:	Completed after 3 iterations at t[s]:   6861.40
	FillingsUpdate:  mu: -0.049993460  nElectrons: 16.000000  magneticMoment: [ Abs: 0.00000  Tot: -0.00000 ]
ElecMinimize: Iter:   0  F: -37.882360628368446  |grad|_K:  2.631e-06  alpha:  1.000e+00
	Linear fluid (dielectric constant: 78.4, screening length: 8.12261 Bohr) occupying 0.983616 of unit cell:	Completed after 2 iterations at t[s]:   6904.81
	Linear fluid (dielectric constant: 78.4, screening length: 8.12261 Bohr) occupying 0.983615 of unit cell:	Completed after 2 iterations at t[s]:   6933.13
	FillingsUpdate:  mu: -0.049888258  nElectrons: 16.000000  magneticMoment: [ Abs: 0.00000  Tot: +0.00000 ]
	SubspaceRotationAdjust: set factor to 0.963
ElecMinimize: Iter:   1  F: -37.882395405405063  |grad|_K:  1.052e-06  alpha:  6.059e-01  linmin:  9.108e-05  t[s]:   6955.29
	Linear fluid (dielectric constant: 78.4, screening length: 8.12261 Bohr) occupying 0.983617 of unit cell:	Completed after 2 iterations at t[s]:   6975.92
	Linear fluid (dielectric constant: 78.4, screening length: 8.12261 Bohr) occupying 0.983617 of unit cell:	Completed after 0 iterations at t[s]:   6998.70
	FillingsUpdate:  mu: -0.049878687  nElectrons: 16.000000  magneticMoment: [ Abs: 0.00000  Tot: -0.00000 ]
	SubspaceRotationAdjust: set factor to 0.942
ElecMinimize: Iter:   2  F: -37.882400589259490  |grad|_K:  5.730e-07  alpha:  5.711e-01  linmin: -1.320e-04  t[s]:   7020.83
	Linear fluid (dielectric constant: 78.4, screening length: 8.12261 Bohr) occupying 0.983617 of unit cell:	Completed after 1 iterations at t[s]:   7039.58
	Linear fluid (dielectric constant: 78.4, screening length: 8.12261 Bohr) occupying 0.983617 of unit cell:	Completed after 0 iterations at t[s]:   7062.59
	FillingsUpdate:  mu: -0.049883106  nElectrons: 16.000000  magneticMoment: [ Abs: 0.00000  Tot: +0.00000 ]
	SubspaceRotationAdjust: set factor to 1.09
ElecMinimize: Iter:   3  F: -37.882402216512013  |grad|_K:  2.314e-07  alpha:  5.824e-01  linmin: -5.166e-04  t[s]:   7084.68
	Linear fluid (dielectric constant: 78.4, screening length: 8.12261 Bohr) occupying 0.983616 of unit cell:	Completed after 0 iterations at t[s]:   7099.79
	Linear fluid (dielectric constant: 78.4, screening length: 8.12261 Bohr) occupying 0.983616 of unit cell:	Completed after 0 iterations at t[s]:   7122.72
	FillingsUpdate:  mu: -0.049882183  nElectrons: 16.000000  magneticMoment: [ Abs: 0.00000  Tot: +0.00000 ]
	SubspaceRotationAdjust: set factor to 1.13
ElecMinimize: Iter:   4  F: -37.882402565117822  |grad|_K:  1.266e-07  alpha:  7.210e-01  linmin: -1.045e-07  t[s]:   7144.88
	Linear fluid (dielectric constant: 78.4, screening length: 8.12261 Bohr) occupying 0.983616 of unit cell:	Completed after 0 iterations at t[s]:   7159.96
	Linear fluid (dielectric constant: 78.4, screening length: 8.12261 Bohr) occupying 0.983616 of unit cell:	Completed after 0 iterations at t[s]:   7182.80
	FillingsUpdate:  mu: -0.049882148  nElectrons: 16.000000  magneticMoment: [ Abs: 0.00000  Tot: -0.00000 ]
	SubspaceRotationAdjust: set factor to 1.29
ElecMinimize: Iter:   5  F: -37.882402655623416  |grad|_K:  5.965e-08  alpha:  6.810e-01  linmin:  2.279e-07  t[s]:   7204.87
	Linear fluid (dielectric constant: 78.4, screening length: 8.12261 Bohr) occupying 0.983616 of unit cell:	Completed after 0 iterations at t[s]:   7220.06
	Linear fluid (dielectric constant: 78.4, screening length: 8.12261 Bohr) occupying 0.983616 of unit cell:	Completed after 0 iterations at t[s]:   7242.93
	FillingsUpdate:  mu: -0.049881848  nElectrons: 16.000000  magneticMoment: [ Abs: 0.00000  Tot: +0.00000 ]
	SubspaceRotationAdjust: set factor to 1.36
ElecMinimize: Iter:   6  F: -37.882402676498415  |grad|_K:  2.952e-08  alpha:  7.073e-01  linmin:  1.034e-07  t[s]:   7265.10
ElecMinimize: Converged (|Delta F|<1.000000e-07 for 2 iters).
Setting wave functions to eigenvectors of Hamiltonian
Converging empty states (this may take a while): |deigs|: 6.951e-07

Computing DFT-D3 correction:
# coordination-number C 2.000
# coordination-number O 1.011 1.011
# diagonal-C6 C 29.49
# diagonal-C6 O 12.80 12.80
EvdW_6 =   -0.000008
EvdW_8 =   -0.000079
Completed 7 of 10 configurations.

Computing DFT-D3 correction:
# coordination-number C 2.000
# coordination-number O 1.011 1.011
# diagonal-C6 C 29.49
# diagonal-C6 O 12.80 12.80
EvdW_6 =   -0.000008
EvdW_8 =   -0.000079

-------- Electronic minimization -----------
	Linear fluid (dielectric constant: 78.4, screening length: 8.12261 Bohr) occupying 0.983616 of unit cell:	Completed after 2 iterations at t[s]:   7341.80
	FillingsUpdate:  mu: -0.049911087  nElectrons: 16.000000  magneticMoment: [ Abs: 0.00000  Tot: +0.00000 ]
ElecMinimize: Iter:   0  F: -37.882374665143473  |grad|_K:  2.192e-06  alpha:  1.000e+00
	Linear fluid (dielectric constant: 78.4, screening length: 8.12261 Bohr) occupying 0.983618 of unit cell:	Completed after 3 iterations at t[s]:   7386.94
	Linear fluid (dielectric constant: 78.4, screening length: 8.12261 Bohr) occupying 0.983617 of unit cell:	Completed after 1 iterations at t[s]:   7413.51
	FillingsUpdate:  mu: -0.049911064  nElectrons: 16.000000  magneticMoment: [ Abs: 0.00000  Tot: +0.00000 ]
	SubspaceRotationAdjust: set factor to 1.22
ElecMinimize: Iter:   1  F: -37.882397973475427  |grad|_K:  9.273e-07  alpha:  5.861e-01  linmin:  1.270e-04  t[s]:   7435.41
	Linear fluid (dielectric constant: 78.4, screening length: 8.12261 Bohr) occupying 0.983616 of unit cell:	Completed after 3 iterations at t[s]:   7457.90
	Linear fluid (dielectric constant: 78.4, screening length: 8.12261 Bohr) occupying 0.983617 of unit cell:	Completed after 1 iterations at t[s]:   7484.62
	FillingsUpdate:  mu: -0.049911881  nElectrons: 16.000000  magneticMoment: [ Abs: 0.00000  Tot: +0.00000 ]
	SubspaceRotationAdjust: set factor to 0.779
ElecMinimize: Iter:   2  F: -37.882400154279878  |grad|_K:  5.381e-07  alpha:  3.259e-01  linmin:  3.796e-04  t[s]:   7506.60
	Linear fluid (dielectric constant: 78.4, screening length: 8.12261 Bohr) occupying 0.983617 of unit cell:	Completed after 0 iterations at t[s]:   7521.72
	Linear fluid (dielectric constant: 78.4, screening length: 8.12261 Bohr) occupying 0.983617 of unit cell:	Completed after 1 iterations at t[s]:   7548.19
	FillingsUpdate:  mu: -0.049921502  nElectrons: 16.000000  magneticMoment: [ Abs: 0.00000  Tot: -0.00000 ]
	SubspaceRotationAdjust: set factor to 0.677
ElecMinimize: Iter:   3  F: -37.882401039417800  |grad|_K:  3.113e-07  alpha:  6.563e-01  linmin:  2.221e-03  t[s]:   7570.18
	Linear fluid (dielectric constant: 78.4, screening length: 8.12261 Bohr) occupying 0.983617 of unit cell:	Completed after 0 iterations at t[s]:   7587.10
[...]
	SubspaceRotationAdjust: set factor to 1.01
ElecMinimize: Iter:   3  F: -37.882352941462358  |grad|_K:  2.708e-07  alpha:  6.052e-01  linmin: -6.442e-04  t[s]:   9048.10
	Linear fluid (dielectric constant: 78.4, screening length: 8.12261 Bohr) occupying 0.983634 of unit cell:	Completed after 1 iterations at t[s]:   9066.87
	Linear fluid (dielectric constant: 78.4, screening length: 8.12261 Bohr) occupying 0.983634 of unit cell:	Completed after 0 iterations at t[s]:   9089.68
	FillingsUpdate:  mu: -0.049500625  nElectrons: 16.000000  magneticMoment: [ Abs: 0.00000  Tot: +0.00000 ]
	SubspaceRotationAdjust: set factor to 0.911
ElecMinimize: Iter:   4  F: -37.882352994834278  |grad|_K:  2.829e-07  alpha:  3.004e-01  linmin: -2.199e-04  t[s]:   9111.66
	Linear fluid (dielectric constant: 78.4, screening length: 8.12261 Bohr) occupying 0.983634 of unit cell:	Completed after 0 iterations at t[s]:   9126.80
	Linear fluid (dielectric constant: 78.4, screening length: 8.12261 Bohr) occupying 0.983634 of unit cell:	Completed after 0 iterations at t[s]:   9149.47
	FillingsUpdate:  mu: -0.049498627  nElectrons: 16.000000  magneticMoment: [ Abs: 0.00000  Tot: +0.00000 ]
	SubspaceRotationAdjust: set factor to 1.26
ElecMinimize: Iter:   5  F: -37.882353225048973  |grad|_K:  2.279e-07  alpha:  3.258e-01  linmin: -2.165e-07  t[s]:   9171.49
	Linear fluid (dielectric constant: 78.4, screening length: 8.12261 Bohr) occupying 0.983634 of unit cell:	Completed after 0 iterations at t[s]:   9188.57
	Linear fluid (dielectric constant: 78.4, screening length: 8.12261 Bohr) occupying 0.983634 of unit cell:	Completed after 0 iterations at t[s]:   9211.50
	FillingsUpdate:  mu: -0.049486470  nElectrons: 16.000000  magneticMoment: [ Abs: 0.00000  Tot: -0.00000 ]
	SubspaceRotationAdjust: set factor to 1.64
ElecMinimize: Iter:   6  F: -37.882353252730056  |grad|_K:  1.933e-07  alpha:  1.967e-01  linmin: -1.382e-03  t[s]:   9233.63
	Linear fluid (dielectric constant: 78.4, screening length: 8.12261 Bohr) occupying 0.983634 of unit cell:	Completed after 0 iterations at t[s]:   9248.84
	Linear fluid (dielectric constant: 78.4, screening length: 8.12261 Bohr) occupying 0.983635 of unit cell:	Completed after 1 iterations at t[s]:   9275.31
ElecMinimize: 	Step increased F by 6.006231e-07, reducing alpha to 4.094877e-02.
	Linear fluid (dielectric constant: 78.4, screening length: 8.12261 Bohr) occupying 0.983634 of unit cell:	Completed after 0 iterations at t[s]:   9311.45
	FillingsUpdate:  mu: -0.049479725  nElectrons: 16.000000  magneticMoment: [ Abs: 0.00000  Tot: +0.00000 ]
	SubspaceRotationAdjust: set factor to 1.37
ElecMinimize: Iter:   7  F: -37.882353381882666  |grad|_K:  4.855e-07  alpha:  4.095e-02  linmin:  2.726e-03  t[s]:   9333.41
ElecMinimize: 	Bad step direction: g.d > 0.
ElecMinimize: 	Undoing step.
	Linear fluid (dielectric constant: 78.4, screening length: 8.12261 Bohr) occupying 0.983634 of unit cell:	Completed after 0 iterations at t[s]:   9348.55
ElecMinimize: 	Step failed: resetting search direction.
	FillingsUpdate:  mu: -0.049479725  nElectrons: 16.000000  magneticMoment: [ Abs: 0.00000  Tot: +0.00000 ]
	SubspaceRotationAdjust: set factor to 1.23
ElecMinimize: Iter:   8  F: -37.882353381882758  |grad|_K:  4.607e-07  alpha:  0.000e+00
	Linear fluid (dielectric constant: 78.4, screening length: 8.12261 Bohr) occupying 0.983634 of unit cell:	Completed after 0 iterations at t[s]:   9387.61
	Linear fluid (dielectric constant: 78.4, screening length: 8.12261 Bohr) occupying 0.983634 of unit cell:	Completed after 0 iterations at t[s]:   9410.34
ElecMinimize: 	Step increased F by 8.184750e-08, reducing alpha to 1.826758e-03.
	Linear fluid (dielectric constant: 78.4, screening length: 8.12261 Bohr) occupying 0.983634 of unit cell:	Completed after 0 iterations at t[s]:   9446.55
ElecMinimize: 	Step increased F by 1.297613e-07, reducing alpha to 1.826758e-04.
	Linear fluid (dielectric constant: 78.4, screening length: 8.12261 Bohr) occupying 0.983634 of unit cell:	Completed after 0 iterations at t[s]:   9482.68
ElecMinimize: 	Step increased F by 1.346088e-07, reducing alpha to 1.826758e-05.
ElecMinimize: 	Step failed to reduce F after 3 attempts. Quitting step.
ElecMinimize: 	Undoing step.
	Linear fluid (dielectric constant: 78.4, screening length: 8.12261 Bohr) occupying 0.983634 of unit cell:	Completed after 0 iterations at t[s]:   9519.06
ElecMinimize: 	Step failed along negative gradient direction.
ElecMinimize: Probably at roundoff error limit. (Stopping)
Setting wave functions to eigenvectors of Hamiltonian
Converging empty states (this may take a while): |deigs|: 1.045e-06

Computing DFT-D3 correction:
# coordination-number C 2.000
# coordination-number O 1.011 1.011
# diagonal-C6 C 29.49
# diagonal-C6 O 12.80 12.80
EvdW_6 =   -0.000008
EvdW_8 =   -0.000078
Completed 9 of 10 configurations.

Computing DFT-D3 correction:
# coordination-number C 2.000
# coordination-number O 1.011 1.011
# diagonal-C6 C 29.49
# diagonal-C6 O 12.80 12.80
EvdW_6 =   -0.000008
EvdW_8 =   -0.000079

-------- Electronic minimization -----------
	Linear fluid (dielectric constant: 78.4, screening length: 8.12261 Bohr) occupying 0.983619 of unit cell:	Completed after 3 iterations at t[s]:   9630.34
	FillingsUpdate:  mu: -0.049757697  nElectrons: 16.000000  magneticMoment: [ Abs: 0.00000  Tot: +0.00000 ]
ElecMinimize: Iter:   0  F: -37.882356065132456  |grad|_K:  3.044e-06  alpha:  1.000e+00
	Linear fluid (dielectric constant: 78.4, screening length: 8.12261 Bohr) occupying 0.983620 of unit cell:	Completed after 4 iterations at t[s]:   9677.26
	Linear fluid (dielectric constant: 78.4, screening length: 8.12261 Bohr) occupying 0.983619 of unit cell:	Completed after 2 iterations at t[s]:   9705.59
	FillingsUpdate:  mu: -0.049824048  nElectrons: 16.000000  magneticMoment: [ Abs: 0.00000  Tot: +0.00000 ]
	SubspaceRotationAdjust: set factor to 0.986
ElecMinimize: Iter:   1  F: -37.882390032698758  |grad|_K:  1.763e-06  alpha:  4.392e-01  linmin:  3.426e-05  t[s]:   9727.63
	Linear fluid (dielectric constant: 78.4, screening length: 8.12261 Bohr) occupying 0.983618 of unit cell:	Completed after 3 iterations at t[s]:   9750.12
	Linear fluid (dielectric constant: 78.4, screening length: 8.12261 Bohr) occupying 0.983618 of unit cell:	Completed after 0 iterations at t[s]:   9772.79
	FillingsUpdate:  mu: -0.049871216  nElectrons: 16.000000  magneticMoment: [ Abs: 0.00000  Tot: +0.00000 ]
	SubspaceRotationAdjust: set factor to 0.588
ElecMinimize: Iter:   2  F: -37.882399296377159  |grad|_K:  8.536e-07  alpha:  3.553e-01  linmin:  6.453e-04  t[s]:   9794.96
	Linear fluid (dielectric constant: 78.4, screening length: 8.12261 Bohr) occupying 0.983618 of unit cell:	Completed after 2 iterations at t[s]:   9815.62
	Linear fluid (dielectric constant: 78.4, screening length: 8.12261 Bohr) occupying 0.983618 of unit cell:	Completed after 0 iterations at t[s]:   9838.23
	FillingsUpdate:  mu: -0.049864851  nElectrons: 16.000000  magneticMoment: [ Abs: 0.00000  Tot: +0.00000 ]
	SubspaceRotationAdjust: set factor to 0.429
ElecMinimize: Iter:   3  F: -37.882400979684611  |grad|_K:  4.115e-07  alpha:  3.233e-01  linmin: -1.628e-03  t[s]:   9860.28
	Linear fluid (dielectric constant: 78.4, screening length: 8.12261 Bohr) occupying 0.983618 of unit cell:	Completed after 0 iterations at t[s]:   9875.26
	Linear fluid (dielectric constant: 78.4, screening length: 8.12261 Bohr) occupying 0.983617 of unit cell:	Completed after 0 iterations at t[s]:   9898.21
	FillingsUpdate:  mu: -0.049873009  nElectrons: 16.000000  magneticMoment: [ Abs: 0.00000  Tot: +0.00000 ]
	SubspaceRotationAdjust: set factor to 0.526
ElecMinimize: Iter:   4  F: -37.882402199820980  |grad|_K:  2.392e-07  alpha:  7.201e-01  linmin:  5.754e-07  t[s]:   9920.27
	Linear fluid (dielectric constant: 78.4, screening length: 8.12261 Bohr) occupying 0.983617 of unit cell:	Completed after 0 iterations at t[s]:   9935.45
	Linear fluid (dielectric constant: 78.4, screening length: 8.12261 Bohr) occupying 0.983617 of unit cell:	Completed after 0 iterations at t[s]:   9958.43
	FillingsUpdate:  mu: -0.049877776  nElectrons: 16.000000  magneticMoment: [ Abs: 0.00000  Tot: +0.00000 ]
	SubspaceRotationAdjust: set factor to 0.668
ElecMinimize: Iter:   5  F: -37.882402561724163  |grad|_K:  1.462e-07  alpha:  7.627e-01  linmin:  2.202e-07  t[s]:   9980.52
	Linear fluid (dielectric constant: 78.4, screening length: 8.12261 Bohr) occupying 0.983617 of unit cell:	Completed after 2 iterations at t[s]:  10001.10
	Linear fluid (dielectric constant: 78.4, screening length: 8.12261 Bohr) occupying 0.983617 of unit cell:	Completed after 0 iterations at t[s]:  10023.84
ElecMinimize: 	Step increased F by 3.727263e-07, reducing alpha to 1.170839e-02.
	Linear fluid (dielectric constant: 78.4, screening length: 8.12261 Bohr) occupying 0.983617 of unit cell:	Completed after 0 iterations at t[s]:  10060.13
ElecMinimize: 	Step increased F by 3.531966e-07, reducing alpha to 1.170839e-03.
	Linear fluid (dielectric constant: 78.4, screening length: 8.12261 Bohr) occupying 0.983617 of unit cell:	Completed after 0 iterations at t[s]:  10096.21
ElecMinimize: 	Step increased F by 3.515418e-07, reducing alpha to 1.170839e-04.
ElecMinimize: 	Step failed to reduce F after 3 attempts. Quitting step.
ElecMinimize: 	Undoing step.
	Linear fluid (dielectric constant: 78.4, screening length: 8.12261 Bohr) occupying 0.983617 of unit cell:	Completed after 0 iterations at t[s]:  10132.52
ElecMinimize: 	Step failed: resetting search direction.
	FillingsUpdate:  mu: -0.049866605  nElectrons: 16.000000  magneticMoment: [ Abs: 0.00000  Tot: +0.00000 ]
	SubspaceRotationAdjust: set factor to 0.623
ElecMinimize: Iter:   6  F: -37.882402210200091  |grad|_K:  4.042e-07  alpha:  1.171e-04
	Linear fluid (dielectric constant: 78.4, screening length: 8.12261 Bohr) occupying 0.983617 of unit cell:	Completed after 2 iterations at t[s]:  10175.18
	Linear fluid (dielectric constant: 78.4, screening length: 8.12261 Bohr) occupying 0.983617 of unit cell:	Completed after 2 iterations at t[s]:  10203.53
	FillingsUpdate:  mu: -0.049870325  nElectrons: 16.000000  magneticMoment: [ Abs: 0.00000  Tot: +0.00000 ]
	SubspaceRotationAdjust: set factor to 0.359
ElecMinimize: Iter:   7  F: -37.882402449087216  |grad|_K:  1.919e-07  alpha:  2.547e-01  linmin:  4.295e-03  t[s]:  10225.53
	Linear fluid (dielectric constant: 78.4, screening length: 8.12261 Bohr) occupying 0.983617 of unit cell:	Completed after 0 iterations at t[s]:  10240.65
ElecMinimize: 	Predicted alpha/alphaT>3.000000, increasing alphaT to 7.639577e-01.
	Linear fluid (dielectric constant: 78.4, screening length: 8.12261 Bohr) occupying 0.983617 of unit cell:	Completed after 0 iterations at t[s]:  10263.44
	Linear fluid (dielectric constant: 78.4, screening length: 8.12261 Bohr) occupying 0.983617 of unit cell:	Completed after 0 iterations at t[s]:  10286.19
	FillingsUpdate:  mu: -0.049871781  nElectrons: 16.000000  magneticMoment: [ Abs: 0.00000  Tot: +0.00000 ]
	SubspaceRotationAdjust: set factor to 0.565
ElecMinimize: Iter:   8  F: -37.882402670685345  |grad|_K:  1.460e-07  alpha:  1.004e+00  linmin: -1.559e-07  t[s]:  10308.23
	Linear fluid (dielectric constant: 78.4, screening length: 8.12261 Bohr) occupying 0.983617 of unit cell:	Completed after 2 iterations at t[s]:  10328.87
	Linear fluid (dielectric constant: 78.4, screening length: 8.12261 Bohr) occupying 0.983617 of unit cell:	Completed after 0 iterations at t[s]:  10351.44
ElecMinimize: 	Step increased F by 1.438125e-07, reducing alpha to 1.137598e-02.
	Linear fluid (dielectric constant: 78.4, screening length: 8.12261 Bohr) occupying 0.983617 of unit cell:	Completed after 0 iterations at t[s]:  10387.87
ElecMinimize: 	Step increased F by 3.733087e-08, reducing alpha to 1.137598e-03.
	Linear fluid (dielectric constant: 78.4, screening length: 8.12261 Bohr) occupying 0.983617 of unit cell:	Completed after 0 iterations at t[s]:  10424.01
ElecMinimize: 	Step increased F by 2.686710e-08, reducing alpha to 1.137598e-04.
ElecMinimize: 	Step failed to reduce F after 3 attempts. Quitting step.
ElecMinimize: 	Undoing step.
	Linear fluid (dielectric constant: 78.4, screening length: 8.12261 Bohr) occupying 0.983617 of unit cell:	Completed after 0 iterations at t[s]:  10460.38
ElecMinimize: 	Step failed: resetting search direction.
	FillingsUpdate:  mu: -0.049879996  nElectrons: 16.000000  magneticMoment: [ Abs: 0.00000  Tot: -0.00000 ]
	SubspaceRotationAdjust: set factor to 0.53
ElecMinimize: Iter:   9  F: -37.882402643934711  |grad|_K:  5.186e-07  alpha:  1.138e-04
	Linear fluid (dielectric constant: 78.4, screening length: 8.12261 Bohr) occupying 0.983617 of unit cell:	Completed after 3 iterations at t[s]:  10505.19
	Linear fluid (dielectric constant: 78.4, screening length: 8.12261 Bohr) occupying 0.983617 of unit cell:	Completed after 2 iterations at t[s]:  10533.38
ElecMinimize: 	Step increased F by 2.529946e-07, reducing alpha to 2.191349e-02.
	Linear fluid (dielectric constant: 78.4, screening length: 8.12261 Bohr) occupying 0.983617 of unit cell:	Completed after 0 iterations at t[s]:  10569.53
ElecMinimize: 	Step increased F by 3.485385e-08, reducing alpha to 2.191349e-03.
	Linear fluid (dielectric constant: 78.4, screening length: 8.12261 Bohr) occupying 0.983617 of unit cell:	Completed after 0 iterations at t[s]:  10605.74
ElecMinimize: 	Step increased F by 2.101234e-08, reducing alpha to 2.191349e-04.
ElecMinimize: 	Step failed to reduce F after 3 attempts. Quitting step.
ElecMinimize: 	Undoing step.
	Linear fluid (dielectric constant: 78.4, screening length: 8.12261 Bohr) occupying 0.983617 of unit cell:	Completed after 0 iterations at t[s]:  10641.94
ElecMinimize: 	Step failed along negative gradient direction.
ElecMinimize: Probably at roundoff error limit. (Stopping)
Setting wave functions to eigenvectors of Hamiltonian
Converging empty states (this may take a while): |deigs|: 6.596e-07

Computing DFT-D3 correction:
# coordination-number C 2.000
# coordination-number O 1.011 1.011
# diagonal-C6 C 29.49
# diagonal-C6 O 12.80 12.80
EvdW_6 =   -0.000008
EvdW_8 =   -0.000079
Completed 10 of 10 configurations.

Relative symmetry error in force matrix = 0.0220394
3 imaginary modes, 0 modes within cutoff, 6 real modes.

Imaginary mode 1:
Frequency: 0.000932i Eh [ 204i cm^-1 ]
Degeneracy: 1 of 1
IR intensity: 0.0000 e^2/amu [ 0.0 km/mol ]
Displacements:
disp C   0.000000000000000   0.003505018307304   0.000502069674451
disp O  -0.000000000000000   0.003517765940993   0.000499512370763
disp O   0.000000000000000   0.003408525998370   0.000795864211850

Imaginary mode 2:
Frequency: 0.000467i Eh [ 103i cm^-1 ]
Degeneracy: 1 of 2
IR intensity: 0.0000 e^2/amu [ 0.0 km/mol ]
Displacements:
disp C   0.001553550610098  -0.000000000000000  -0.000000000000000
disp O  -0.001847065204610  -0.000000000000000  -0.000000000000000
disp O   0.005391105190518  -0.000000000000000  -0.000000000000000

Imaginary mode 3:
Frequency: 0.000376i Eh [ 82i cm^-1 ]
Degeneracy: 2 of 2
IR intensity: 0.0001 e^2/amu [ 0.1 km/mol ]
Displacements:
disp C   0.000000000000000  -0.000557461708033   0.002972990031046
disp O  -0.000000000000000  -0.000576666405997   0.000327136543427
disp O   0.000000000000000  -0.000557004478761   0.005164212688122

Real mode 1:
Frequency: 0.000619 Eh [ 136 cm^-1 ]
Degeneracy: 1 of 2
IR intensity: 0.0003 e^2/amu [ 0.3 km/mol ]
Displacements:
disp C   0.002633422354797  -0.000000000000000  -0.000000000000000
disp O   0.005250739105916   0.000000000000000  -0.000000000000000
disp O   0.001229277345710   0.000000000000000   0.000000000000000

Real mode 2:
Frequency: 0.000713 Eh [ 156 cm^-1 ]
Degeneracy: 2 of 2
IR intensity: 0.0009 e^2/amu [ 0.9 km/mol ]
Displacements:
disp C  -0.000000000000000   0.000218495596851  -0.002653319735192
disp O  -0.000000000000000   0.000272476321098  -0.005142585785168
disp O  -0.000000000000000   0.000236158011068   0.001546082957604

Real mode 3:
Frequency: 0.003029 Eh [ 665 cm^-1 ]
Degeneracy: 1 of 2
IR intensity: 0.0419 e^2/amu [ 40.8 km/mol ]
Displacements:
disp C  -0.000000000000000   0.000107568925267   0.005434856280929
disp O   0.000000000000000   0.000066924889718  -0.002735693518186
disp O   0.000000000000000   0.000148276364612  -0.002143356176056

Real mode 4:
Frequency: 0.003052 Eh [ 670 cm^-1 ]
Degeneracy: 2 of 2
IR intensity: 0.0430 e^2/amu [ 41.9 km/mol ]
Displacements:
disp C   0.006026997179702   0.000000000000000   0.000000000000000
disp O  -0.001818136650556   0.000000000000000  -0.000000000000000
disp O  -0.001926757364244   0.000000000000000  -0.000000000000000

Real mode 5:
Frequency: 0.006187 Eh [ 1358 cm^-1 ]
Degeneracy: 1 of 1
IR intensity: 0.0000 e^2/amu [ 0.0 km/mol ]
Displacements:
disp C  -0.000000000000000  -0.000101010541598   0.000065639654599
disp O   0.000000000000000   0.004112928716749  -0.000009889860835
disp O   0.000000000000000  -0.004166494803092  -0.000026045543352

Real mode 6:
Frequency: 0.010709 Eh [ 2350 cm^-1 ]
Degeneracy: 1 of 1
IR intensity: 1.1493 e^2/amu [ 1120.4 km/mol ]
Displacements:
disp C   0.000000000000000  -0.005745232491511   0.000017525482711
disp O  -0.000000000000000   0.002141356026837   0.000026374028607
disp O  -0.000000000000000   0.002218511439449   0.000003577310343

Vibrational free energy components at T = 298 K:
	ZPE:          0.012154
	Evib:         0.013716
	TSvib:        0.002930
	Avib:         0.010786


Dumping 'jdft.n_up' ... done
Dumping 'jdft.n_dn' ... done
Dumping 'jdft.tau_up' ... done
Dumping 'jdft.tau_dn' ... done
Dumping 'jdft.eigenvals' ... done
Dumping 'jdft.eigStats' ... 
	eMin: -1.058475 at state 1 ( [ +0.000000 +0.000000 +0.000000 ] spin -1 )
	HOMO: -0.324157 at state 0 ( [ +0.000000 +0.000000 +0.000000 ] spin 1 )
	mu  : -0.049875
	LUMO: -0.015248 at state 1 ( [ +0.000000 +0.000000 +0.000000 ] spin -1 )
	eMax: +0.018316 at state 0 ( [ +0.000000 +0.000000 +0.000000 ] spin 1 )
	HOMO-LUMO gap: +0.308909
	Optical gap  : +0.308909 at state 0 ( [ +0.000000 +0.000000 +0.000000 ] spin 1 )
Dumping 'jdft.kPts' ... done
Dumping 'jdft.dosUp' ... done.
Dumping 'jdft.dosDn' ... done.
End date and time: Thu Nov 17 13:27:42 2022  (Duration: 0-2:59:03.10)
Done!

PROFILER:             augmentDensityGrid     3.312448 +/-     2.584839 s,  632 calls,   2093.467150 s total
PROFILER:         augmentDensityGridGrad     0.473836 +/-     0.143607 s,  396 calls,    187.639049 s total
PROFILER:              EdensityAndVscloc    15.273407 +/-     5.884746 s,  317 calls,   4841.670096 s total
PROFILER:            ExCorrCommunication     0.202810 +/-     0.160085 s, 2014 calls,    408.459436 s total
PROFILER:               ExCorrFunctional     0.035081 +/-     0.007764 s,  348 calls,     12.208340 s total
PROFILER:                    ExCorrTotal     1.943305 +/-     0.312243 s,  348 calls,    676.269983 s total
PROFILER:                    initWeights     2.177136 +/-     0.000000 s,    1 calls,      2.177136 s total
PROFILER:            matrix::diagonalize     0.000293 +/-     0.000000 s,    1 calls,      0.000293 s total
PROFILER:                    matrix::set     0.000000 +/-     0.000000 s,   34 calls,      0.000004 s total
PROFILER:     RadialFunctionR::transform     0.061089 +/-     0.334290 s,   64 calls,      3.909689 s total
PROFILER:                    reduceKmesh     0.000001 +/-     0.000000 s,    1 calls,      0.000001 s total
PROFILER:   VanDerWaalsD3::energyAndGrad     0.001539 +/-     0.005937 s,   21 calls,      0.032324 s total
PROFILER:               WavefunctionDrag     1.071984 +/-     0.007364 s,   10 calls,     10.719845 s total

MEMUSAGE:                    IndexArrays     0.030040 GB
MEMUSAGE:                         matrix     0.002150 GB
MEMUSAGE:                           misc     0.184852 GB
MEMUSAGE:                    ScalarField     0.976562 GB
MEMUSAGE:               ScalarFieldTilde     0.648880 GB
MEMUSAGE:                          Total     1.533255 GB
