
*************** JDFTx 1.7.0 (git hash 5f12716a) ***************

Start date and time: Wed Nov  9 13:08:47 2022
Executable /home/nisi6161/jdftx_alpine/build/jdftx with command-line: -i in
Running on hosts (process indices):  c3cpu-c11-u7-1.rc.int.colorado.edu (0-17)
Divided in process groups (process indices):  0 (0)  1 (1)  2 (2)  3 (3)  4 (4)  5 (5)  6 (6)  7 (7)  8 (8)  9 (9)  10 (10)  11 (11)  12 (12)  13 (13)  14 (14)  15 (15)  16 (16)  17 (17)
Resource initialization completed at t[s]:      0.00
Run totals: 18 processes, 48 threads, 0 GPUs


Input parsed successfully to the following command list (including defaults):

basis kpoint-dependent
converge-empty-states yes
coords-type Cartesian
core-overlap-check none
coulomb-interaction Periodic
davidson-band-ratio 1.1
density-of-states Etol 1.000000e-06 Esigma 1.000000e-03 \
		Complete \
	Total \
	OrthoOrbital C 1   s \
	OrthoOrbital C 1   p \
	OrthoOrbital C 1   px \
	OrthoOrbital C 1   py \
	OrthoOrbital C 1   pz \
	OrthoOrbital C 2   s \
	OrthoOrbital C 2   p \
	OrthoOrbital C 2   px \
	OrthoOrbital C 2   py \
	OrthoOrbital C 2   pz \
	OrthoOrbital C 3   s \
	OrthoOrbital C 3   p \
	OrthoOrbital C 3   px \
	OrthoOrbital C 3   py \
	OrthoOrbital C 3   pz \
	OrthoOrbital C 4   s \
	OrthoOrbital C 4   p \
	OrthoOrbital C 4   px \
	OrthoOrbital C 4   py \
	OrthoOrbital C 4   pz \
	OrthoOrbital C 5   s \
	OrthoOrbital C 5   p \
	OrthoOrbital C 5   px \
	OrthoOrbital C 5   py \
	OrthoOrbital C 5   pz \
	OrthoOrbital C 6   s \
	OrthoOrbital C 6   p \
	OrthoOrbital C 6   px \
	OrthoOrbital C 6   py \
	OrthoOrbital C 6   pz \
	OrthoOrbital C 7   s \
	OrthoOrbital C 7   p \
	OrthoOrbital C 7   px \
	OrthoOrbital C 7   py \
	OrthoOrbital C 7   pz \
	OrthoOrbital C 8   s \
	OrthoOrbital C 8   p \
	OrthoOrbital C 8   px \
	OrthoOrbital C 8   py \
	OrthoOrbital C 8   pz \
	OrthoOrbital C 9   s \
	OrthoOrbital C 9   p \
	OrthoOrbital C 9   px \
	OrthoOrbital C 9   py \
	OrthoOrbital C 9   pz \
	OrthoOrbital C 10   s \
	OrthoOrbital C 10   p \
	OrthoOrbital C 10   px \
	OrthoOrbital C 10   py \
	OrthoOrbital C 10   pz \
	OrthoOrbital C 11   s \
	OrthoOrbital C 11   p \
	OrthoOrbital C 11   px \
	OrthoOrbital C 11   py \
	OrthoOrbital C 11   pz \
	OrthoOrbital C 12   s \
	OrthoOrbital C 12   p \
	OrthoOrbital C 12   px \
	OrthoOrbital C 12   py \
	OrthoOrbital C 12   pz \
	OrthoOrbital C 13   s \
	OrthoOrbital C 13   p \
	OrthoOrbital C 13   px \
	OrthoOrbital C 13   py \
	OrthoOrbital C 13   pz \
	OrthoOrbital C 14   s \
	OrthoOrbital C 14   p \
	OrthoOrbital C 14   px \
	OrthoOrbital C 14   py \
	OrthoOrbital C 14   pz \
	OrthoOrbital C 15   s \
	OrthoOrbital C 15   p \
	OrthoOrbital C 15   px \
	OrthoOrbital C 15   py \
	OrthoOrbital C 15   pz \
	OrthoOrbital C 16   s \
	OrthoOrbital C 16   p \
	OrthoOrbital C 16   px \
	OrthoOrbital C 16   py \
	OrthoOrbital C 16   pz \
	OrthoOrbital C 17   s \
	OrthoOrbital C 17   p \
	OrthoOrbital C 17   px \
	OrthoOrbital C 17   py \
	OrthoOrbital C 17   pz \
	OrthoOrbital C 18   s \
	OrthoOrbital C 18   p \
	OrthoOrbital C 18   px \
	OrthoOrbital C 18   py \
	OrthoOrbital C 18   pz \
	OrthoOrbital C 19   s \
	OrthoOrbital C 19   p \
	OrthoOrbital C 19   px \
	OrthoOrbital C 19   py \
	OrthoOrbital C 19   pz \
	OrthoOrbital C 20   s \
	OrthoOrbital C 20   p \
	OrthoOrbital C 20   px \
	OrthoOrbital C 20   py \
	OrthoOrbital C 20   pz \
	OrthoOrbital C 21   s \
	OrthoOrbital C 21   p \
	OrthoOrbital C 21   px \
	OrthoOrbital C 21   py \
	OrthoOrbital C 21   pz \
	OrthoOrbital C 22   s \
	OrthoOrbital C 22   p \
	OrthoOrbital C 22   px \
	OrthoOrbital C 22   py \
	OrthoOrbital C 22   pz \
	OrthoOrbital C 23   s \
	OrthoOrbital C 23   p \
	OrthoOrbital C 23   px \
	OrthoOrbital C 23   py \
	OrthoOrbital C 23   pz \
	OrthoOrbital C 24   s \
	OrthoOrbital C 24   p \
	OrthoOrbital C 24   px \
	OrthoOrbital C 24   py \
	OrthoOrbital C 24   pz \
	OrthoOrbital C 25   s \
	OrthoOrbital C 25   p \
	OrthoOrbital C 25   px \
	OrthoOrbital C 25   py \
	OrthoOrbital C 25   pz \
	OrthoOrbital C 26   s \
	OrthoOrbital C 26   p \
	OrthoOrbital C 26   px \
	OrthoOrbital C 26   py \
	OrthoOrbital C 26   pz \
	OrthoOrbital C 27   s \
	OrthoOrbital C 27   p \
	OrthoOrbital C 27   px \
	OrthoOrbital C 27   py \
	OrthoOrbital C 27   pz \
	OrthoOrbital C 28   s \
	OrthoOrbital C 28   p \
	OrthoOrbital C 28   px \
	OrthoOrbital C 28   py \
	OrthoOrbital C 28   pz \
	OrthoOrbital C 29   s \
	OrthoOrbital C 29   p \
	OrthoOrbital C 29   px \
	OrthoOrbital C 29   py \
	OrthoOrbital C 29   pz \
	OrthoOrbital C 30   s \
	OrthoOrbital C 30   p \
	OrthoOrbital C 30   px \
	OrthoOrbital C 30   py \
	OrthoOrbital C 30   pz \
	OrthoOrbital C 31   s \
	OrthoOrbital C 31   p \
	OrthoOrbital C 31   px \
	OrthoOrbital C 31   py \
	OrthoOrbital C 31   pz \
	OrthoOrbital C 32   s \
	OrthoOrbital C 32   p \
	OrthoOrbital C 32   px \
	OrthoOrbital C 32   py \
	OrthoOrbital C 32   pz \
	OrthoOrbital C 33   s \
	OrthoOrbital C 33   p \
	OrthoOrbital C 33   px \
	OrthoOrbital C 33   py \
	OrthoOrbital C 33   pz \
	OrthoOrbital C 34   s \
	OrthoOrbital C 34   p \
	OrthoOrbital C 34   px \
	OrthoOrbital C 34   py \
	OrthoOrbital C 34   pz \
	OrthoOrbital C 35   s \
	OrthoOrbital C 35   p \
	OrthoOrbital C 35   px \
	OrthoOrbital C 35   py \
	OrthoOrbital C 35   pz \
	OrthoOrbital C 36   s \
	OrthoOrbital C 36   p \
	OrthoOrbital C 36   px \
	OrthoOrbital C 36   py \
	OrthoOrbital C 36   pz \
	OrthoOrbital C 37   s \
	OrthoOrbital C 37   p \
	OrthoOrbital C 37   px \
	OrthoOrbital C 37   py \
	OrthoOrbital C 37   pz \
	OrthoOrbital C 38   s \
	OrthoOrbital C 38   p \
	OrthoOrbital C 38   px \
	OrthoOrbital C 38   py \
	OrthoOrbital C 38   pz \
	OrthoOrbital C 39   s \
	OrthoOrbital C 39   p \
	OrthoOrbital C 39   px \
	OrthoOrbital C 39   py \
	OrthoOrbital C 39   pz \
	OrthoOrbital C 40   s \
	OrthoOrbital C 40   p \
	OrthoOrbital C 40   px \
	OrthoOrbital C 40   py \
	OrthoOrbital C 40   pz \
	OrthoOrbital C 41   s \
	OrthoOrbital C 41   p \
	OrthoOrbital C 41   px \
	OrthoOrbital C 41   py \
	OrthoOrbital C 41   pz \
	OrthoOrbital C 42   s \
	OrthoOrbital C 42   p \
	OrthoOrbital C 42   px \
	OrthoOrbital C 42   py \
	OrthoOrbital C 42   pz \
	OrthoOrbital C 43   s \
	OrthoOrbital C 43   p \
	OrthoOrbital C 43   px \
	OrthoOrbital C 43   py \
	OrthoOrbital C 43   pz \
	OrthoOrbital C 44   s \
	OrthoOrbital C 44   p \
	OrthoOrbital C 44   px \
	OrthoOrbital C 44   py \
	OrthoOrbital C 44   pz \
	OrthoOrbital C 45   s \
	OrthoOrbital C 45   p \
	OrthoOrbital C 45   px \
	OrthoOrbital C 45   py \
	OrthoOrbital C 45   pz \
	OrthoOrbital N 1   s \
	OrthoOrbital N 1   p \
	OrthoOrbital N 1   px \
	OrthoOrbital N 1   py \
	OrthoOrbital N 1   pz \
	OrthoOrbital N 2   s \
	OrthoOrbital N 2   p \
	OrthoOrbital N 2   px \
	OrthoOrbital N 2   py \
	OrthoOrbital N 2   pz \
	OrthoOrbital N 3   s \
	OrthoOrbital N 3   p \
	OrthoOrbital N 3   px \
	OrthoOrbital N 3   py \
	OrthoOrbital N 3   pz \
	OrthoOrbital N 4   s \
	OrthoOrbital N 4   p \
	OrthoOrbital N 4   px \
	OrthoOrbital N 4   py \
	OrthoOrbital N 4   pz \
	OrthoOrbital Ti 1   s \
	OrthoOrbital Ti 1   p \
	OrthoOrbital Ti 1   px \
	OrthoOrbital Ti 1   py \
	OrthoOrbital Ti 1   pz \
	OrthoOrbital Ti 1   d \
	OrthoOrbital Ti 1   dxy \
	OrthoOrbital Ti 1   dyz \
	OrthoOrbital Ti 1   dz2 \
	OrthoOrbital Ti 1   dxz \
	OrthoOrbital Ti 1   dx2-y2 \
	OrthoOrbital O 1   s \
	OrthoOrbital O 1   p \
	OrthoOrbital O 1   px \
	OrthoOrbital O 1   py \
	OrthoOrbital O 1   pz \
	OrthoOrbital O 2   s \
	OrthoOrbital O 2   p \
	OrthoOrbital O 2   px \
	OrthoOrbital O 2   py \
	OrthoOrbital O 2   pz \
	OrthoOrbital O 3   s \
	OrthoOrbital O 3   p \
	OrthoOrbital O 3   px \
	OrthoOrbital O 3   py \
	OrthoOrbital O 3   pz \
	OrthoOrbital H 1   s \
	OrthoOrbital H 2   s
dump End ElecDensity KEdensity BandEigs EigStats RhoAtom DOS Kpoints
dump Ionic State IonicPositions Lattice EigStats Ecomponents
dump 
dump 
dump 
dump 
dump 
dump 
dump 
dump 
dump-name jdft.$VAR
elec-cutoff 20
elec-eigen-algo Davidson
elec-ex-corr gga-PBE
elec-initial-magnetization 0.000000 no
elec-n-bands 140
elec-smearing Fermi 0.001
electronic-minimize  \
	dirUpdateScheme      FletcherReeves \
	linminMethod         DirUpdateRecommended \
	nIterations          100 \
	history              15 \
	knormThreshold       0 \
	energyDiffThreshold  1e-07 \
	nEnergyDiff          2 \
	alphaTstart          1 \
	alphaTmin            1e-10 \
	updateTestStepSize   yes \
	alphaTreduceFactor   0.1 \
	alphaTincreaseFactor 3 \
	nAlphaAdjustMax      3 \
	wolfeEnergy          0.0001 \
	wolfeGradient        0.9 \
	fdTest               no
exchange-regularization WignerSeitzTruncated
fluid LinearPCM 298.000000 1.013250
fluid-anion F- 0.5 MeanFieldLJ \
	epsBulk 1 \
	pMol 0 \
	epsInf 1 \
	Pvap 0 \
	sigmaBulk 0 \
	Rvdw 2.24877 \
	Res 0 \
	tauNuc 343133
fluid-cation Na+ 0.5 MeanFieldLJ \
	epsBulk 1 \
	pMol 0 \
	epsInf 1 \
	Pvap 0 \
	sigmaBulk 0 \
	Rvdw 2.19208 \
	Res 0 \
	tauNuc 343133
fluid-ex-corr lda-TF lda-PZ
fluid-gummel-loop 10 1.000000e-05
fluid-minimize  \
	dirUpdateScheme      PolakRibiere \
	linminMethod         DirUpdateRecommended \
	nIterations          400 \
	history              15 \
	knormThreshold       1e-11 \
	energyDiffThreshold  0 \
	nEnergyDiff          2 \
	alphaTstart          1 \
	alphaTmin            1e-10 \
	updateTestStepSize   yes \
	alphaTreduceFactor   0.1 \
	alphaTincreaseFactor 3 \
	nAlphaAdjustMax      6 \
	wolfeEnergy          0.0001 \
	wolfeGradient        0.9 \
	fdTest               no
fluid-solvent H2O 55.338 ScalarEOS \
	epsBulk 78.4 \
	pMol 0.92466 \
	epsInf 1.77 \
	Pvap 1.06736e-10 \
	sigmaBulk 4.62e-05 \
	Rvdw 2.61727 \
	Res 1.42 \
	tauNuc 343133 \
	poleEl 15 7 1
forces-output-coords Positions
ion C   0.017950000000000   0.048075000000000   0.096375000000000 0
ion C  21.065961999999999   4.017079000000000   0.019984000000000 0
ion C  18.723314000000002   8.019617000000002  43.156348000000008 0
ion C  -7.024300000000002  12.022420000000002  43.166080000000008 0
ion C  -9.354952000000001  16.028878000000002   0.052383000000000 0
ion C   4.705953000000001   0.158791000000000   0.112077000000000 0
ion C   2.306401000000001   4.161445000000000   0.158880000000000 0
ion C  -0.092397000000000   8.006368000000002   0.058483000000000 0
ion C  -2.413756000000002  12.013531000000004  43.206179000000006 0
ion C  -4.704064000000002  16.036898000000004   0.001298000000000 0
ion C   9.391509000000001   0.067402000000000   0.057661000000000 0
ion C   7.107184999999999   4.187795000000000   0.205511000000000 0
ion C  -0.012481000000003  15.955310000000004   0.050696000000000 0
ion C   2.366171999999997  19.906488000000003   0.074574000000000 0
ion C  11.784302000000002   4.007858000000001   0.021974000000000 0
ion C   9.501189000000000   8.000466000000001   0.145125000000000 0
ion C   4.692925999999998  15.803246000000001   0.236828000000000 0
ion C   7.016949000000000  19.906568000000004   0.104983000000000 0
ion C  16.425822000000000   3.991231000000001  43.224217000000010 0
ion C  14.116672000000001   8.014584000000001  43.161928000000010 0
ion C  11.798681999999998  12.012033000000004   0.044814000000000 0
ion C   9.387610999999998  15.940182000000004   0.174539000000000 0
ion C   0.008095000000000   2.733034000000000   0.076045000000000 0
ion C  -2.400137000000000   6.671779000000001  43.230965000000005 0
ion C  -4.719619000000002  10.675193000000002  43.151157000000005 0
ion C  -7.026471000000001  14.695913000000003  43.235507000000005 0
ion C  -9.355037000000001  18.717276000000002   0.094558000000000 0
ion C   4.707175000000000   2.883939000000000   0.191323000000000 0
ion C  -0.097943000000000  10.695400000000001   0.042002000000000 0
ion C  -2.385130000000000  14.684055000000003  43.245023000000010 0
ion C  -4.702462000000001  18.725537000000003   0.062981000000000 0
ion C   9.406943000000000   2.749189000000000   0.080716000000000 0
ion C   2.284984999999999  14.526657000000004   0.160697000000000 0
ion C   0.003272999999998  18.634562000000003   0.058439000000000 0
ion C  14.100649000000002   2.651043000000000   0.012285000000000 0
ion C  11.807876000000002   6.680274000000001  43.244288000000005 0
ion C   9.500489000000000  10.681542000000004   0.195043000000000 0
ion C   7.084415000000000  14.500037000000004   0.301064000000000 0
ion C   4.694936000000000  18.525143000000003   0.139934000000000 0
ion C  18.751832000000004   2.655771000000001   0.022450000000000 0
ion C  16.422432000000001   6.664524000000001  43.155093000000008 0
ion C  14.111515000000001  10.684742999999999  43.179706000000010 0
ion C  11.767907000000001  14.685884000000003   0.099446000000000 0
ion C   9.375728000000001  18.624960000000002   0.122545000000000 0
ion C   4.738148000000001   8.341660000000001   5.564449000000000 1
ion N   2.171123000000000  11.945487000000002   0.214595000000000 0
ion N   7.211132999999998  11.894931000000001   0.458041000000000 0
ion N   2.194394000000000   6.761195000000001   0.239251000000000 0
ion N   7.219963000000002   6.777543000000001   0.356129000000000 0
ion Ti   4.578486000000002   9.321384000000000   1.791893000000000 0
ion O   3.330000000000002  10.374110000000002   5.272642000000001 1
ion O   5.141217000000002   7.289641000000000   7.662120000000001 1
ion O   6.782825999999999   2.632895000000000   6.516001000000002 1
ion H   6.219602000000001   4.422434000000001   6.897176000000002 1
ion H   6.444764999999999   2.440429000000000   4.702826000000001 1
ion-species /projects/musgravc/apps/jdftx-1.6.0/build/pseudopotentials/GBRV_v1.5/$ID_pbe_v1.uspp
ion-species /projects/musgravc/apps/jdftx-1.6.0/build/pseudopotentials/GBRV_v1.5/$ID_pbe_v1.2.uspp
ion-species /projects/musgravc/apps/jdftx-1.6.0/build/pseudopotentials/GBRV_v1.5/$ID_pbe_v1.4.uspp
ion-species /projects/musgravc/apps/jdftx-1.6.0/build/pseudopotentials/GBRV_v1.5/$ID_pbe_v1.5.uspp
ion-width Ecut
ionic-minimize  \
	dirUpdateScheme      L-BFGS \
	linminMethod         DirUpdateRecommended \
	nIterations          100 \
	history              15 \
	knormThreshold       0.0001 \
	energyDiffThreshold  1e-06 \
	nEnergyDiff          2 \
	alphaTstart          1 \
	alphaTmin            1e-10 \
	updateTestStepSize   yes \
	alphaTreduceFactor   0.1 \
	alphaTincreaseFactor 1 \
	nAlphaAdjustMax      1 \
	wolfeEnergy          0.0001 \
	wolfeGradient        0.9 \
	fdTest               no
kpoint   0.000000000000   0.000000000000   0.000000000000  1.00000000000000
kpoint-folding 3 3 1 
latt-move-scale 0 0 0
latt-scale 1 1 1 
lattice  \
	  23.436261999999999  -11.733459000000000    0.000000000000000  \
	   0.017994000000000   19.941849000000001    0.000000000000000  \
	   0.000000000000000    0.000000000000000   43.256312999999999 
lattice-minimize  \
	dirUpdateScheme      L-BFGS \
	linminMethod         DirUpdateRecommended \
	nIterations          0 \
	history              15 \
	knormThreshold       0 \
	energyDiffThreshold  1e-06 \
	nEnergyDiff          2 \
	alphaTstart          1 \
	alphaTmin            1e-10 \
	updateTestStepSize   yes \
	alphaTreduceFactor   0.1 \
	alphaTincreaseFactor 3 \
	nAlphaAdjustMax      3 \
	wolfeEnergy          0.0001 \
	wolfeGradient        0.9 \
	fdTest               no
lcao-params 30 1e-06 0.001
pcm-variant CANDLE
spintype z-spin
subspace-rotation-factor 1 yes
symmetries none
symmetry-threshold 0.0001
target-mu -0.1272 no

van-der-waals D3
vibrations \
	dr 0.01\
	centralDiff no\
	useConstraints yes\
	translationSym yes\
	rotationSym no\
	omegaMin 0.0002\
	T 298\
	omegaResolution 0.0001


Applied RMS atom displacement 0 bohrs to make symmetries exact.
Applied RMS atom displacement 0 bohrs to make symmetries exact.

---------- Initializing the Grid ----------
R = 
[      23.4363     -11.7335            0  ]
[     0.017994      19.9418            0  ]
[            0            0      43.2563  ]
unit cell volume = 20225.5
G =
[   0.267976   0.157673         -0  ]
[ -0.000241801   0.314933          0  ]
[          0         -0   0.145255  ]
Minimum fftbox size, Smin = [  96  96  176  ]
Chosen fftbox size, S = [  96  96  180  ]

---------- Exchange Correlation functional ----------
Initalized PBE GGA exchange.
Initalized PBE GGA correlation.

---------- Setting up pseudopotentials ----------
Width of ionic core gaussian charges (only for fluid interactions / plotting) set to 0.397384

Reading pseudopotential file '/projects/musgravc/apps/jdftx-1.6.0/build/pseudopotentials/GBRV_v1.5/c_pbe_v1.2.uspp':
  Title: C.  Created by USPP 7.3.6 on 3-2-2014
  Reference state energy: -5.406344.  4 valence electrons in orbitals:
    |200>  occupation: 2  eigenvalue: -0.504890
    |210>  occupation: 2  eigenvalue: -0.194356
  lMax: 1  lLocal: 2  QijEcut: 5
  4 projectors sampled on a log grid with 503 points:
    l: 0  eig: -0.504890  rCut: 1.3
    l: 0  eig: 0.000000  rCut: 1.3
    l: 1  eig: -0.194357  rCut: 1.3
    l: 1  eig: 0.000000  rCut: 1.3
  Partial core density with radius 1.1
  Transforming core density to a uniform radial grid of dG=0.02 with 1464 points.
  Transforming local potential to a uniform radial grid of dG=0.02 with 1464 points.
  Transforming nonlocal projectors to a uniform radial grid of dG=0.02 with 432 points.
  Transforming density augmentations to a uniform radial grid of dG=0.02 with 1464 points.
  Transforming atomic orbitals to a uniform radial grid of dG=0.02 with 432 points.
  Core radius for overlap checks: 1.30 bohrs.

Reading pseudopotential file '/projects/musgravc/apps/jdftx-1.6.0/build/pseudopotentials/GBRV_v1.5/n_pbe_v1.2.uspp':
  Title: N.  Created by USPP 7.3.6 on 3-2-2014
  Reference state energy: -9.763716.  5 valence electrons in orbitals:
    |200>  occupation: 2  eigenvalue: -0.681964
    |210>  occupation: 3  eigenvalue: -0.260726
  lMax: 1  lLocal: 2  QijEcut: 6
  4 projectors sampled on a log grid with 491 points:
    l: 0  eig: -0.681964  rCut: 1.15
    l: 0  eig: 0.000000  rCut: 1.15
    l: 1  eig: -0.260729  rCut: 1.2
    l: 1  eig: 0.500000  rCut: 1.2
  Partial core density with radius 0.8
  Transforming core density to a uniform radial grid of dG=0.02 with 1464 points.
  Transforming local potential to a uniform radial grid of dG=0.02 with 1464 points.
  Transforming nonlocal projectors to a uniform radial grid of dG=0.02 with 432 points.
  Transforming density augmentations to a uniform radial grid of dG=0.02 with 1464 points.
  Transforming atomic orbitals to a uniform radial grid of dG=0.02 with 432 points.
  Core radius for overlap checks: 1.20 bohrs.

Reading pseudopotential file '/projects/musgravc/apps/jdftx-1.6.0/build/pseudopotentials/GBRV_v1.5/ti_pbe_v1.4.uspp':
  Title: Ti.  Created by USPP 7.3.6 on 31-3-15
  Reference state energy: -59.020943.  12 valence electrons in orbitals:
    |300>  occupation: 2  eigenvalue: -2.777623
    |310>  occupation: 6  eigenvalue: -1.894596
    |400>  occupation: 2  eigenvalue: -0.438610
    |320>  occupation: 1  eigenvalue: -0.583119
  lMax: 2  lLocal: 3  QijEcut: 6
  6 projectors sampled on a log grid with 597 points:
    l: 0  eig: -2.777624  rCut: 1.8
    l: 0  eig: -0.438611  rCut: 1.8
    l: 1  eig: -1.894596  rCut: 1.8
    l: 1  eig: 0.500000  rCut: 1.8
    l: 2  eig: -0.583118  rCut: 1.8
    l: 2  eig: 0.150000  rCut: 1.8
  Partial core density with radius 0.8
  Transforming core density to a uniform radial grid of dG=0.02 with 1464 points.
  Transforming local potential to a uniform radial grid of dG=0.02 with 1464 points.
  Transforming nonlocal projectors to a uniform radial grid of dG=0.02 with 432 points.
  Transforming density augmentations to a uniform radial grid of dG=0.02 with 1464 points.
  Transforming atomic orbitals to a uniform radial grid of dG=0.02 with 432 points.
  Core radius for overlap checks: 1.80 bohrs.

Reading pseudopotential file '/projects/musgravc/apps/jdftx-1.6.0/build/pseudopotentials/GBRV_v1.5/o_pbe_v1.2.uspp':
  Title: O.  Created by USPP 7.3.6 on 3-2-2014
  Reference state energy: -15.894388.  6 valence electrons in orbitals:
    |200>  occupation: 2  eigenvalue: -0.878823
    |210>  occupation: 4  eigenvalue: -0.332131
  lMax: 2  lLocal: 2  QijEcut: 6
  5 projectors sampled on a log grid with 511 points:
    l: 0  eig: -0.878823  rCut: 1.25
    l: 0  eig: 0.000000  rCut: 1.25
    l: 1  eig: -0.332132  rCut: 1.25
    l: 1  eig: 0.000000  rCut: 1.25
    l: 2  eig: 1.000000  rCut: 1.25
  Partial core density with radius 0.7
  Transforming core density to a uniform radial grid of dG=0.02 with 1464 points.
  Transforming local potential to a uniform radial grid of dG=0.02 with 1464 points.
  Transforming nonlocal projectors to a uniform radial grid of dG=0.02 with 432 points.
  Transforming density augmentations to a uniform radial grid of dG=0.02 with 1464 points.
  Transforming atomic orbitals to a uniform radial grid of dG=0.02 with 432 points.
  Core radius for overlap checks: 1.25 bohrs.

Reading pseudopotential file '/projects/musgravc/apps/jdftx-1.6.0/build/pseudopotentials/GBRV_v1.5/h_pbe_v1.4.uspp':
  Title: H.  Created by USPP 7.3.6 on 2-4-15
  Reference state energy: -0.458849.  1 valence electrons in orbitals:
    |100>  occupation: 1  eigenvalue: -0.238595
  lMax: 0  lLocal: 1  QijEcut: 6
  2 projectors sampled on a log grid with 395 points:
    l: 0  eig: -0.238595  rCut: 1.2
    l: 0  eig: 1.000000  rCut: 1.2
  Transforming local potential to a uniform radial grid of dG=0.02 with 1464 points.
  Transforming nonlocal projectors to a uniform radial grid of dG=0.02 with 432 points.
  Transforming density augmentations to a uniform radial grid of dG=0.02 with 1464 points.
  Transforming atomic orbitals to a uniform radial grid of dG=0.02 with 432 points.
  Core radius for overlap checks: 1.20 bohrs.

Initialized 5 species with 55 total atoms.

Folded 1 k-points by 3x3x1 to 9 k-points.

---------- Setting up k-points, bands, fillings ----------
No reducable k-points. 
Computing the number of bands and number of electrons
Calculating initial fillings.
nElectrons: 232.000000   nBands: 140   nStates: 18

----- Setting up reduced wavefunction bases (one per k-point) -----
average nbasis = 86412.556 , ideal nbasis = 86404.907

----- Initializing Supercell corresponding to k-point mesh -----
Lattice vector linear combinations in supercell:
[   3   0   0  ]
[   0   3   0  ]
[   0   0   1  ]
Supercell lattice vectors:
[  70.3088  -35.2004  0  ]
[  0.053982  59.8255  0  ]
[  0  0  43.2563  ]

Initializing DFT-D3 calculator:
	Parameters set for gga-PBE functional
	s6:  1.000  s_r6:  1.217
	s8:  0.722  s_r8:  1.000
	Per-atom parameters loaded for:
	 C:  sqrtQ[a0]:  3.105  Rcov[a0]:  1.417  CN: [ 0.00 0.99 2.00 3.00 3.98 ]
	 N:  sqrtQ[a0]:  2.712  Rcov[a0]:  1.342  CN: [ 0.00 0.99 2.01 2.99 ]
	Ti:  sqrtQ[a0]:  6.288  Rcov[a0]:  2.305  CN: [ 0.00 1.83 3.87 ]
	 O:  sqrtQ[a0]:  2.594  Rcov[a0]:  1.191  CN: [ 0.00 0.99 1.99 ]
	 H:  sqrtQ[a0]:  2.007  Rcov[a0]:  0.605  CN: [ 0.91 0.00 ]

Initializing DFT-D2 calculator for fluid / solvation:
	 C:  C6:   30.35 Eh-a0^6  R0: 2.744 a0
	 N:  C6:   21.33 Eh-a0^6  R0: 2.640 a0
	Ti:  C6:  187.33 Eh-a0^6  R0: 2.952 a0
	 O:  C6:   12.14 Eh-a0^6  R0: 2.536 a0
	 H:  C6:    2.43 Eh-a0^6  R0: 1.892 a0

---------- Setting up ewald sum ----------
Optimum gaussian width for ewald sums = 5.573775 bohr.
Real space sum over 567 unit cells with max indices [  4  4  3  ]
Reciprocal space sum over 7803 terms with max indices [  8  8  13  ]

Computing DFT-D3 correction:
# coordination-number C 3.300 3.321 3.334 3.333 3.313 3.289 3.330 3.645 3.330 3.313 3.301 3.322 3.305 3.301 3.324 3.536 3.265 3.299 3.320 3.335 3.328 3.300 3.302 3.326 3.334 3.320 3.300 3.268 3.632 3.324 3.300 3.303 3.327 3.302 3.313 3.330 3.536 3.315 3.288 3.311 3.332 3.335 3.322 3.299 2.999
# coordination-number N 3.181 3.170 3.180 3.174
# coordination-number Ti 7.418
# coordination-number O 1.989 1.057 1.981
# coordination-number H 1.007 0.996
# diagonal-C6 C 24.28 24.08 23.93 23.95 24.16 24.39 23.98 19.78 23.98 24.15 24.28 24.06 24.23 24.27 24.04 21.12 24.59 24.29 24.08 23.92 24.00 24.28 24.27 24.02 23.93 24.08 24.28 24.57 19.92 24.04 24.28 24.25 24.01 24.27 24.15 23.98 21.12 24.13 24.39 24.17 23.96 23.92 24.06 24.29 25.67
# diagonal-C6 N 15.60 15.60 15.60 15.60
# diagonal-C6 Ti 321.59
# diagonal-C6 O 10.41 12.77 10.42
# diagonal-C6 H 3.09 3.09
EvdW_6 =   -0.044433
EvdW_8 =   -0.034772

---------- Allocating electronic variables ----------
Initializing wave functions:  linear combination of atomic orbitals
C pseudo-atom occupations:   s ( 2 )  p ( 2 )
N pseudo-atom occupations:   s ( 2 )  p ( 3 )
Ti pseudo-atom occupations:   s ( 2 0 )  p ( 6 )  d ( 4 )
O pseudo-atom occupations:   s ( 2 )  p ( 4 )
H pseudo-atom occupations:   s ( 1 )
	FillingsUpdate:  mu: -0.127200000  nElectrons: 232.000000  magneticMoment: [ Abs: 0.00436  Tot: +0.00000 ]
LCAOMinimize: Iter:   0  G: -369.2694079593225638  |grad|_K:  4.241e-03  alpha:  1.000e+00
	FillingsUpdate:  mu: -0.127200000  nElectrons: 232.000000  magneticMoment: [ Abs: 0.00427  Tot: -0.00000 ]
LCAOMinimize: Iter:   1  G: -370.7471233231881342  |grad|_K:  1.528e-03  alpha:  1.223e-01  linmin: -1.466e-01  cgtest:  1.762e+00  t[s]:    298.73
LCAOMinimize: Encountered beta<0, resetting CG.
LCAOMinimize: 	Wrong curvature in test step, increasing alphaT to 3.667899e-01.
	FillingsUpdate:  mu: -0.127200000  nElectrons: 232.000000  magneticMoment: [ Abs: 0.00432  Tot: -0.00018 ]
LCAOMinimize: Iter:   2  G: -371.0326563195911831  |grad|_K:  1.757e-03  alpha: -4.449e-01  linmin: -4.816e-02  cgtest:  6.669e-01  t[s]:    418.06
	FillingsUpdate:  mu: -0.127200000  nElectrons: 232.000000  magneticMoment: [ Abs: 0.00458  Tot: -0.00045 ]
LCAOMinimize: Iter:   3  G: -371.0824750526158482  |grad|_K:  3.731e-03  alpha:  4.751e-02  linmin:  2.195e-02  cgtest: -1.820e-01  t[s]:    541.36
LCAOMinimize: 	Bad step direction: g.d > 0.
LCAOMinimize: 	Undoing step.
LCAOMinimize: 	Step failed: resetting search direction.
	FillingsUpdate:  mu: -0.127200000  nElectrons: 232.000000  magneticMoment: [ Abs: 0.00458  Tot: -0.00045 ]
LCAOMinimize: Iter:   4  G: -371.0824750526158482  |grad|_K:  3.731e-03  alpha:  0.000e+00
	FillingsUpdate:  mu: -0.127200000  nElectrons: 232.000000  magneticMoment: [ Abs: 0.00460  Tot: -0.00048 ]
LCAOMinimize: Iter:   5  G: -371.2221906449660196  |grad|_K:  1.280e-03  alpha:  3.219e-02  linmin: -6.169e-02  cgtest: -2.436e-01  t[s]:    752.01
LCAOMinimize: 	Wrong curvature in test step, increasing alphaT to 9.657680e-02.
	FillingsUpdate:  mu: -0.127200000  nElectrons: 232.000000  magneticMoment: [ Abs: 0.00473  Tot: -0.00062 ]
LCAOMinimize: Iter:   6  G: -371.2767317533881624  |grad|_K:  1.273e-03  alpha: -5.150e-01  linmin: -1.094e-01  cgtest:  9.369e-01  t[s]:    873.19
	FillingsUpdate:  mu: -0.127200000  nElectrons: 232.000000  magneticMoment: [ Abs: 0.00488  Tot: -0.00077 ]
LCAOMinimize: Iter:   7  G: -371.3163598302670039  |grad|_K:  1.259e-03  alpha:  2.518e-02  linmin: -1.130e-01  cgtest:  9.421e-01  t[s]:    992.17
LCAOMinimize: 	Wrong curvature in test step, increasing alphaT to 7.554658e-02.
	FillingsUpdate:  mu: -0.127200000  nElectrons: 232.000000  magneticMoment: [ Abs: 0.00507  Tot: -0.00097 ]
LCAOMinimize: Iter:   8  G: -371.3539449407097663  |grad|_K:  1.233e-03  alpha: -7.284e-01  linmin: -1.665e-01  cgtest:  9.447e-01  t[s]:   1111.24
	FillingsUpdate:  mu: -0.127200000  nElectrons: 232.000000  magneticMoment: [ Abs: 0.00527  Tot: -0.00117 ]
LCAOMinimize: Iter:   9  G: -371.3881610838154188  |grad|_K:  1.227e-03  alpha:  2.416e-02  linmin: -2.119e-01  cgtest:  9.507e-01  t[s]:   1234.97
LCAOMinimize: 	Wrong curvature in test step, increasing alphaT to 7.248513e-02.
	FillingsUpdate:  mu: -0.127200000  nElectrons: 232.000000  magneticMoment: [ Abs: 0.00547  Tot: -0.00139 ]
LCAOMinimize: Iter:  10  G: -371.4224717712800157  |grad|_K:  1.225e-03  alpha: -4.866e-01  linmin: -2.151e-01  cgtest:  9.503e-01  t[s]:   1351.36
	FillingsUpdate:  mu: -0.127200000  nElectrons: 232.000000  magneticMoment: [ Abs: 0.00572  Tot: -0.00165 ]
LCAOMinimize: Iter:  11  G: -371.4591740135007853  |grad|_K:  1.224e-03  alpha:  2.568e-02  linmin: -2.150e-01  cgtest:  9.452e-01  t[s]:   1474.90
LCAOMinimize: 	Wrong curvature in test step, increasing alphaT to 7.702940e-02.
	FillingsUpdate:  mu: -0.127200000  nElectrons: 232.000000  magneticMoment: [ Abs: 0.00600  Tot: -0.00194 ]
LCAOMinimize: Iter:  12  G: -371.4959928957074453  |grad|_K:  1.221e-03  alpha: -4.552e-01  linmin: -2.100e-01  cgtest:  9.425e-01  t[s]:   1593.61
	FillingsUpdate:  mu: -0.127200000  nElectrons: 232.000000  magneticMoment: [ Abs: 0.00632  Tot: -0.00227 ]
LCAOMinimize: Iter:  13  G: -371.5334347034411167  |grad|_K:  1.229e-03  alpha:  2.599e-02  linmin: -1.884e-01  cgtest:  9.291e-01  t[s]:   1712.65
LCAOMinimize: 	Wrong curvature in test step, increasing alphaT to 7.796113e-02.
	FillingsUpdate:  mu: -0.127200000  nElectrons: 232.000000  magneticMoment: [ Abs: 0.00656  Tot: -0.00253 ]
LCAOMinimize: Iter:  14  G: -371.5765560167130275  |grad|_K:  1.345e-03  alpha: -8.824e-02  linmin: -1.365e-01  cgtest:  8.339e-01  t[s]:   1831.90
	FillingsUpdate:  mu: -0.127200000  nElectrons: 232.000000  magneticMoment: [ Abs: 0.00508  Tot: -0.00100 ]
LCAOMinimize: Iter:  15  G: -371.5784669660762347  |grad|_K:  3.742e-03  alpha:  3.807e-02  linmin:  2.246e-02  cgtest: -4.947e-02  t[s]:   1955.59
LCAOMinimize: 	Bad step direction: g.d > 0.
LCAOMinimize: 	Undoing step.
LCAOMinimize: 	Step failed: resetting search direction.
	FillingsUpdate:  mu: -0.127200000  nElectrons: 232.000000  magneticMoment: [ Abs: 0.00508  Tot: -0.00100 ]
LCAOMinimize: Iter:  16  G: -371.5784669660762347  |grad|_K:  3.742e-03  alpha:  0.000e+00
	FillingsUpdate:  mu: -0.127200000  nElectrons: 232.000000  magneticMoment: [ Abs: 0.00769  Tot: -0.00365 ]
LCAOMinimize: Iter:  17  G: -371.6583872139361802  |grad|_K:  1.280e-03  alpha:  2.352e-02  linmin: -1.697e-02  cgtest: -9.046e-01  t[s]:   2165.69
LCAOMinimize: 	Wrong curvature in test step, increasing alphaT to 7.055443e-02.
	FillingsUpdate:  mu: -0.127200000  nElectrons: 232.000000  magneticMoment: [ Abs: 0.00807  Tot: -0.00404 ]
LCAOMinimize: Iter:  18  G: -371.6970522076986185  |grad|_K:  1.217e-03  alpha: -1.085e+00  linmin: -9.435e-02  cgtest:  9.210e-01  t[s]:   2287.17
	FillingsUpdate:  mu: -0.127200000  nElectrons: 232.000000  magneticMoment: [ Abs: 0.00732  Tot: -0.00325 ]
LCAOMinimize: Iter:  19  G: -371.7366458546949275  |grad|_K:  1.052e-03  alpha:  2.711e-02  linmin: -6.995e-02  cgtest:  6.719e-01  t[s]:   2406.19
LCAOMinimize: 	Predicted alpha/alphaT>3.000000, increasing alphaT to 8.134276e-02.
LCAOMinimize: 	Predicted alpha/alphaT>3.000000, increasing alphaT to 2.440283e-01.
	FillingsUpdate:  mu: -0.127200000  nElectrons: 232.000000  magneticMoment: [ Abs: 0.00849  Tot: -0.00439 ]
LCAOMinimize: Iter:  20  G: -371.8315217979288150  |grad|_K:  7.576e-04  alpha:  1.008e-01  linmin: -7.718e-02  cgtest:  8.206e-01  t[s]:   2593.48
LCAOMinimize: Encountered beta<0, resetting CG.
	FillingsUpdate:  mu: -0.127200000  nElectrons: 232.000000  magneticMoment: [ Abs: 0.01130  Tot: -0.00733 ]
LCAOMinimize: Iter:  21  G: -371.8440302095869470  |grad|_K:  9.143e-04  alpha:  7.251e-02  linmin: -1.543e-02  cgtest: -4.933e-01  t[s]:   2716.90
	FillingsUpdate:  mu: -0.127200000  nElectrons: 232.000000  magneticMoment: [ Abs: 0.01198  Tot: -0.00805 ]
LCAOMinimize: Iter:  22  G: -371.8675039433940128  |grad|_K:  2.560e-04  alpha:  3.704e-02  linmin: -4.397e-02  cgtest:  6.100e-01  t[s]:   2836.23
LCAOMinimize: Encountered beta<0, resetting CG.
	FillingsUpdate:  mu: -0.127200000  nElectrons: 232.000000  magneticMoment: [ Abs: 0.01200  Tot: -0.00804 ]
LCAOMinimize: Iter:  23  G: -371.8680306496563617  |grad|_K:  1.418e-04  alpha:  1.859e-02  linmin: -2.276e-02  cgtest:  1.334e-01  t[s]:   2959.70
LCAOMinimize: 	Predicted alpha/alphaT>3.000000, increasing alphaT to 5.576598e-02.
LCAOMinimize: 	Predicted alpha/alphaT>3.000000, increasing alphaT to 1.672979e-01.
	FillingsUpdate:  mu: -0.127200000  nElectrons: 232.000000  magneticMoment: [ Abs: 0.02063  Tot: -0.01668 ]
LCAOMinimize: Iter:  24  G: -371.8700778324832186  |grad|_K:  1.169e-04  alpha:  2.169e-01  linmin: -6.234e-03  cgtest: -2.506e-01  t[s]:   3142.59
	FillingsUpdate:  mu: -0.127200000  nElectrons: 232.000000  magneticMoment: [ Abs: 0.02263  Tot: -0.01863 ]
LCAOMinimize: Iter:  25  G: -371.8701940525319856  |grad|_K:  6.425e-05  alpha:  2.162e-02  linmin: -6.483e-03  cgtest: -1.062e-01  t[s]:   3267.17
	FillingsUpdate:  mu: -0.127200000  nElectrons: 232.000000  magneticMoment: [ Abs: 0.02949  Tot: -0.02543 ]
LCAOMinimize: Iter:  26  G: -371.8703610622383735  |grad|_K:  5.390e-05  alpha:  5.679e-02  linmin: -6.855e-02  cgtest:  9.794e-01  t[s]:   3386.53
LCAOMinimize: Encountered beta<0, resetting CG.
	FillingsUpdate:  mu: -0.127200000  nElectrons: 232.000000  magneticMoment: [ Abs: 0.03646  Tot: -0.03236 ]
LCAOMinimize: Iter:  27  G: -371.8704367426927320  |grad|_K:  8.883e-05  alpha:  5.918e-02  linmin: -7.355e-04  cgtest:  2.077e-03  t[s]:   3510.08
	FillingsUpdate:  mu: -0.127200000  nElectrons: 232.000000  magneticMoment: [ Abs: 0.07567  Tot: -0.07099 ]
LCAOMinimize: Iter:  28  G: -371.8707587951184337  |grad|_K:  4.002e-05  alpha:  8.370e-02  linmin: -2.302e-02  cgtest:  5.213e-01  t[s]:   3629.15
LCAOMinimize: Encountered beta<0, resetting CG.
	FillingsUpdate:  mu: -0.127200000  nElectrons: 232.000000  magneticMoment: [ Abs: 0.10416  Tot: -0.09891 ]
LCAOMinimize: Iter:  29  G: -371.8708107187759424  |grad|_K:  8.375e-05  alpha:  7.443e-02  linmin: -2.938e-03  cgtest:  6.223e-02  t[s]:   3753.78
LCAOMinimize: 	Step increased G by 5.749100e-04, reducing alpha to 1.613221e-02.
	FillingsUpdate:  mu: -0.127200000  nElectrons: 232.000000  magneticMoment: [ Abs: 0.13748  Tot: -0.13149 ]
LCAOMinimize: Iter:  30  G: -371.8709223905216277  |grad|_K:  9.287e-05  alpha:  1.613e-02  linmin: -3.108e-02  cgtest:  1.034e+00  t[s]:   3961.69
LCAOMinimize: None of the convergence criteria satisfied after 30 iterations.
----- createFluidSolver() ----- (Fluid-side solver setup)
   Initializing fluid molecule 'H2O'
     Initializing site 'O'
       Electron density: proportional to exp(-r/0.36935)*erfc((r-0.51523)/0.36823) with norm 6.826
       Charge density: gaussian nuclear width 0.478731 with net site charge 0.826
       Polarizability: cuspless exponential with width 0.32 and norm 3.73
       Hard sphere radius: 2.57003 bohrs
       Positions in reference frame:
         [ +0.000000 +0.000000 +0.000000 ]
     Initializing site 'H'
       Electron density: proportional to exp(-r/0.34641)*erfc((r-0)/0.390882) with norm 0.587
       Charge density: gaussian nuclear width 0.377945 with net site charge -0.413
       Polarizability: cuspless exponential with width 0.39 and norm 3.3
       Positions in reference frame:
         [ +0.000000 -1.441945 +1.122523 ]
         [ +0.000000 +1.441945 +1.122523 ]
     Net charge: 0   dipole magnitude: 0.927204
     Initializing spherical shell mfKernel with radius 2.61727 Bohr
     deltaS corrections:
       site 'O': -7.54299
       site 'H': -6.83917
   Initializing fluid molecule 'Na+'
     Initializing site 'Na'
       Electron density: proportional to exp(-r/0.19682)*erfc((r-0.71491)/0.41314) with norm 8.1383
       Charge density: gaussian nuclear width 0.365347 with net site charge -1
       Hard sphere radius: 1.86327 bohrs
       Positions in reference frame:
         [ +0.000000 +0.000000 +0.000000 ]
     Net charge: -1   dipole magnitude: 0
     Initializing gaussian mfKernel with width: 1.55004 Bohr
     deltaS corrections:
       site 'Na': -22.3555
   Initializing fluid molecule 'F-'
     Initializing site 'F'
       Electron density: proportional to exp(-r/0.38886)*erfc((r-0)/0.438782) with norm 8
       Charge density: gaussian nuclear width 0.374796 with net site charge 1
       Hard sphere radius: 2.39995 bohrs
       Positions in reference frame:
         [ +0.000000 +0.000000 +0.000000 ]
     Net charge: 1   dipole magnitude: 0
     Initializing gaussian mfKernel with width: 1.59012 Bohr
     deltaS corrections:
       site 'F': -9.04335

Correction to mu due to finite nuclear width = -0.0113812
   Cavity determined by nc: 0.00142 and sigma: 0.707107
   Nonlocal vdW cavity from gaussian model electron density with norm = 8 and sigma = 0.993594 bohr
   Charge asymmetry in cavity with sensitivity pCavity = 36.5 e-bohr/Eh
   Electrostatic cavity expanded by eta = 1.46 bohrs
   Weighted density cavitation model constrained by Nbulk: 0.0049383 bohr^-3, Pvap: 3.14029 kPa, Rvdw: 2.61727 bohr and sigmaBulk: 4.62e-05 Eh/bohr^2 at T: 298 K.
   Weighted density dispersion model using vdW pair potentials with single solvent site with sqrtC6eff: 0.77 SI.
WARNING: Vibrations: switching off translationSym and rotationSym since useConstraints is on.

---- Citations for features of the code used in this run ----

   Software package:
      R. Sundararaman, K. Letchworth-Weaver, K.A. Schwarz, D. Gunceler, Y. Ozhabes and T.A. Arias, 'JDFTx: software for joint density-functional theory', SoftwareX 6, 278 (2017)

   gga-PBE exchange-correlation functional:
      J.P. Perdew, K. Burke and M. Ernzerhof, Phys. Rev. Lett. 77, 3865 (1996)

   Pseudopotentials:
      KF Garrity, JW Bennett, KM Rabe and D Vanderbilt, Comput. Mater. Sci. 81, 446 (2014)

   DFT-D3 dispersion correction:
      S. Grimme, J. Antony, S. Ehrlich and H. Krieg, J. Chem. Phys. 132, 154104 (2010)

   DFT-D2 dispersion correction:
      S. Grimme, J. Comput. Chem. 27, 1787 (2006)

   Charge-asymmetric nonlocally-determined local-electric (CANDLE) solvation model:
      R. Sundararaman and W.A. Goddard III, J. Chem. Phys. 142, 064107 (2015)

   Total energy minimization with Auxiliary Hamiltonian:
      C. Freysoldt, S. Boeck, and J. Neugebauer, Phys. Rev. B 79, 241103(R) (2009)

   Grand-canonical (fixed-potential) DFT:
      R. Sundararaman, W. A. Goddard III and T. A. Arias, J. Chem. Phys. 146, 114104 (2017)

   Linear-tetrahedron sampling for density of states:
      G. Lehmann and M. Taut, Phys. status solidi (b) 54, 469 (1972)

This list may not be complete. Please suggest additional citations or
report any other bugs at https://github.com/shankar1729/jdftx/issues

Initialization completed successfully at t[s]:   3977.24

------ Vibrations::calculate() -------
WARNING: Vibrations module is experimental. Please report bugs!
Compare results with and without symmetries and report discrepancies.
Degrees of freedom: 18 total, 18 symmetry-independent.

Computing DFT-D3 correction:
# coordination-number C 3.300 3.321 3.334 3.333 3.313 3.289 3.330 3.645 3.330 3.313 3.301 3.322 3.305 3.301 3.324 3.536 3.265 3.299 3.320 3.335 3.328 3.300 3.302 3.326 3.334 3.320 3.300 3.268 3.632 3.324 3.300 3.303 3.327 3.302 3.313 3.330 3.536 3.315 3.288 3.311 3.332 3.335 3.322 3.299 2.999
# coordination-number N 3.181 3.170 3.180 3.174
# coordination-number Ti 7.418
# coordination-number O 1.989 1.057 1.981
# coordination-number H 1.007 0.996
# diagonal-C6 C 24.28 24.08 23.93 23.95 24.16 24.39 23.98 19.78 23.98 24.15 24.28 24.06 24.23 24.27 24.04 21.12 24.59 24.29 24.08 23.92 24.00 24.28 24.27 24.02 23.93 24.08 24.28 24.57 19.92 24.04 24.28 24.25 24.01 24.27 24.15 23.98 21.12 24.13 24.39 24.17 23.96 23.92 24.06 24.29 25.67
# diagonal-C6 N 15.60 15.60 15.60 15.60
# diagonal-C6 Ti 321.59
# diagonal-C6 O 10.41 12.77 10.42
# diagonal-C6 H 3.09 3.09
EvdW_6 =   -0.044433
EvdW_8 =   -0.034772
Fluid solver invoked on fresh (random / LCAO) wavefunctions
Running a vacuum solve first:

-------- Initial electronic minimization -----------
	FillingsUpdate:  mu: -0.212335271  nElectrons: 232.000000  magneticMoment: [ Abs: 0.13748  Tot: -0.13149 ]
ElecMinimize: Iter:   0  G: -371.872080045332325  |grad|_K:  1.443e-04  alpha:  1.000e+00
	FillingsUpdate:  mu: -0.144340677  nElectrons: 232.000000  magneticMoment: [ Abs: 0.24606  Tot: -0.23499 ]
	SubspaceRotationAdjust: set factor to 0.909
ElecMinimize: Iter:   1  G: -374.903352212375182  |grad|_K:  6.132e-05  alpha:  6.779e-01  linmin:  2.092e-05  t[s]:   4172.05
	FillingsUpdate:  mu: -0.085530049  nElectrons: 232.000000  magneticMoment: [ Abs: 0.17869  Tot: -0.16228 ]
	SubspaceRotationAdjust: set factor to 1
ElecMinimize: Iter:   2  G: -375.009455663489177  |grad|_K:  4.601e-05  alpha:  1.169e-01  linmin: -2.176e-03  t[s]:   4293.29
	FillingsUpdate:  mu: -0.086927591  nElectrons: 232.000000  magneticMoment: [ Abs: 0.03195  Tot: -0.00173 ]
	SubspaceRotationAdjust: set factor to 1.06
ElecMinimize: Iter:   3  G: -375.111857525548885  |grad|_K:  2.790e-05  alpha:  1.397e-01  linmin: -1.783e-03  t[s]:   4409.87
	FillingsUpdate:  mu: -0.139483432  nElectrons: 232.000000  magneticMoment: [ Abs: 0.25603  Tot: -0.24815 ]
	SubspaceRotationAdjust: set factor to 0.681
ElecMinimize: Iter:   4  G: -375.194767025219790  |grad|_K:  3.458e-05  alpha:  4.120e-01  linmin:  7.386e-04  t[s]:   4525.22
	FillingsUpdate:  mu: -0.126932676  nElectrons: 232.000000  magneticMoment: [ Abs: 0.08403  Tot: -0.06411 ]
	SubspaceRotationAdjust: set factor to 1.34
ElecMinimize: Iter:   5  G: -375.220694088042706  |grad|_K:  2.075e-05  alpha:  1.141e-01  linmin:  9.547e-05  t[s]:   4644.59
	FillingsUpdate:  mu: -0.109579897  nElectrons: 232.000000  magneticMoment: [ Abs: 0.02939  Tot: -0.00237 ]
	SubspaceRotationAdjust: set factor to 1.46
ElecMinimize: Iter:   6  G: -375.239062698916086  |grad|_K:  1.625e-05  alpha:  1.818e-01  linmin: -4.982e-04  t[s]:   4765.57
	FillingsUpdate:  mu: -0.100240894  nElectrons: 232.000000  magneticMoment: [ Abs: 0.02425  Tot: -0.00092 ]
	SubspaceRotationAdjust: set factor to 1.28
ElecMinimize: Iter:   7  G: -375.260338696409065  |grad|_K:  1.304e-05  alpha:  2.841e-01  linmin:  2.582e-04  t[s]:   4882.12
	FillingsUpdate:  mu: -0.110822065  nElectrons: 232.000000  magneticMoment: [ Abs: 0.02303  Tot: -0.00533 ]
	SubspaceRotationAdjust: set factor to 1.23
ElecMinimize: Iter:   8  G: -375.266079592053302  |grad|_K:  8.385e-06  alpha:  1.602e-01  linmin: -2.562e-05  t[s]:   4997.57
	FillingsUpdate:  mu: -0.113382846  nElectrons: 232.000000  magneticMoment: [ Abs: 0.03119  Tot: -0.02192 ]
	SubspaceRotationAdjust: set factor to 0.835
ElecMinimize: Iter:   9  G: -375.269660971726807  |grad|_K:  1.151e-05  alpha:  2.809e-01  linmin:  7.418e-04  t[s]:   5117.08
	FillingsUpdate:  mu: -0.111437758  nElectrons: 232.000000  magneticMoment: [ Abs: 0.01488  Tot: -0.00641 ]
	SubspaceRotationAdjust: set factor to 0.625
ElecMinimize: Iter:  10  G: -375.270936077778401  |grad|_K:  9.457e-06  alpha:  8.401e-02  linmin: -2.445e-06  t[s]:   5237.93
	FillingsUpdate:  mu: -0.111653292  nElectrons: 232.000000  magneticMoment: [ Abs: 0.00827  Tot: +0.00173 ]
	SubspaceRotationAdjust: set factor to 0.96
ElecMinimize: Iter:  11  G: -375.272648911923454  |grad|_K:  5.808e-06  alpha:  8.710e-02  linmin: -1.676e-04  t[s]:   5354.70
	FillingsUpdate:  mu: -0.108851498  nElectrons: 232.000000  magneticMoment: [ Abs: 0.00587  Tot: +0.00141 ]
	SubspaceRotationAdjust: set factor to 1.1
ElecMinimize: Iter:  12  G: -375.274507539718059  |grad|_K:  4.657e-06  alpha:  2.071e-01  linmin: -5.062e-04  t[s]:   5470.31
	FillingsUpdate:  mu: -0.110833469  nElectrons: 232.000000  magneticMoment: [ Abs: 0.00440  Tot: +0.00116 ]
	SubspaceRotationAdjust: set factor to 1.31
ElecMinimize: Iter:  13  G: -375.275738551104666  |grad|_K:  2.876e-06  alpha:  2.194e-01  linmin: -2.634e-05  t[s]:   5589.87
	FillingsUpdate:  mu: -0.114612667  nElectrons: 232.000000  magneticMoment: [ Abs: 0.00442  Tot: +0.00224 ]
	SubspaceRotationAdjust: set factor to 1.22
ElecMinimize: Iter:  14  G: -375.276217779551814  |grad|_K:  2.593e-06  alpha:  2.666e-01  linmin:  1.015e-04  t[s]:   5710.80
	FillingsUpdate:  mu: -0.114505480  nElectrons: 232.000000  magneticMoment: [ Abs: 0.00335  Tot: +0.00188 ]
	SubspaceRotationAdjust: set factor to 1.19
ElecMinimize: Iter:  15  G: -375.276589639185261  |grad|_K:  2.600e-06  alpha:  2.613e-01  linmin:  2.585e-05  t[s]:   5827.34
	FillingsUpdate:  mu: -0.114050972  nElectrons: 232.000000  magneticMoment: [ Abs: 0.00175  Tot: +0.00026 ]
	SubspaceRotationAdjust: set factor to 1.8
ElecMinimize: Iter:  16  G: -375.276877777120603  |grad|_K:  1.630e-06  alpha:  1.995e-01  linmin: -1.761e-05  t[s]:   5942.56
	FillingsUpdate:  mu: -0.113503662  nElectrons: 232.000000  magneticMoment: [ Abs: 0.00144  Tot: -0.00010 ]
	SubspaceRotationAdjust: set factor to 1.51
ElecMinimize: Iter:  17  G: -375.276992916944494  |grad|_K:  1.404e-06  alpha:  1.977e-01  linmin: -4.403e-05  t[s]:   6061.94
	FillingsUpdate:  mu: -0.113134427  nElectrons: 232.000000  magneticMoment: [ Abs: 0.00113  Tot: -0.00033 ]
	SubspaceRotationAdjust: set factor to 1.71
ElecMinimize: Iter:  18  G: -375.277120501652689  |grad|_K:  1.099e-06  alpha:  2.922e-01  linmin:  1.947e-06  t[s]:   6182.84
	FillingsUpdate:  mu: -0.113670947  nElectrons: 232.000000  magneticMoment: [ Abs: 0.00104  Tot: -0.00045 ]
	SubspaceRotationAdjust: set factor to 1.64
ElecMinimize: Iter:  19  G: -375.277183044675439  |grad|_K:  7.939e-07  alpha:  2.370e-01  linmin:  2.629e-05  t[s]:   6299.38
	FillingsUpdate:  mu: -0.113797637  nElectrons: 232.000000  magneticMoment: [ Abs: 0.00077  Tot: -0.00028 ]
	SubspaceRotationAdjust: set factor to 1.57
ElecMinimize: Iter:  20  G: -375.277217442293193  |grad|_K:  6.787e-07  alpha:  2.514e-01  linmin: -2.374e-06  t[s]:   6415.05
	FillingsUpdate:  mu: -0.113448816  nElectrons: 232.000000  magneticMoment: [ Abs: 0.00053  Tot: -0.00009 ]
	SubspaceRotationAdjust: set factor to 1.38
ElecMinimize: Iter:  21  G: -375.277238294549193  |grad|_K:  5.256e-07  alpha:  2.077e-01  linmin: -3.577e-07  t[s]:   6534.54
	FillingsUpdate:  mu: -0.113717214  nElectrons: 232.000000  magneticMoment: [ Abs: 0.00044  Tot: +0.00008 ]
	SubspaceRotationAdjust: set factor to 1.65
ElecMinimize: Iter:  22  G: -375.277256352139887  |grad|_K:  3.961e-07  alpha:  2.999e-01  linmin:  2.205e-07  t[s]:   6655.65
	FillingsUpdate:  mu: -0.113969784  nElectrons: 232.000000  magneticMoment: [ Abs: 0.00042  Tot: +0.00015 ]
	SubspaceRotationAdjust: set factor to 1.59
ElecMinimize: Iter:  23  G: -375.277265021995902  |grad|_K:  3.166e-07  alpha:  2.536e-01  linmin:  5.724e-07  t[s]:   6772.86
	FillingsUpdate:  mu: -0.113793825  nElectrons: 232.000000  magneticMoment: [ Abs: 0.00035  Tot: +0.00014 ]
	SubspaceRotationAdjust: set factor to 1.46
ElecMinimize: Iter:  24  G: -375.277270175422359  |grad|_K:  2.707e-07  alpha:  2.359e-01  linmin:  7.034e-07  t[s]:   6888.36
	FillingsUpdate:  mu: -0.113722349  nElectrons: 232.000000  magneticMoment: [ Abs: 0.00025  Tot: +0.00008 ]
	SubspaceRotationAdjust: set factor to 1.41
ElecMinimize: Iter:  25  G: -375.277273996171516  |grad|_K:  1.997e-07  alpha:  2.392e-01  linmin: -5.905e-06  t[s]:   7006.90
	FillingsUpdate:  mu: -0.113777383  nElectrons: 232.000000  magneticMoment: [ Abs: 0.00014  Tot: +0.00001 ]
	SubspaceRotationAdjust: set factor to 1.51
ElecMinimize: Iter:  26  G: -375.277276894205784  |grad|_K:  1.733e-07  alpha:  3.331e-01  linmin: -1.034e-06  t[s]:   7127.75
	FillingsUpdate:  mu: -0.113761730  nElectrons: 232.000000  magneticMoment: [ Abs: 0.00012  Tot: -0.00003 ]
	SubspaceRotationAdjust: set factor to 1.45
ElecMinimize: Iter:  27  G: -375.277278476209062  |grad|_K:  1.341e-07  alpha:  2.417e-01  linmin:  1.151e-06  t[s]:   7245.02
	FillingsUpdate:  mu: -0.113760753  nElectrons: 232.000000  magneticMoment: [ Abs: 0.00013  Tot: -0.00004 ]
	SubspaceRotationAdjust: set factor to 1.38
ElecMinimize: Iter:  28  G: -375.277279401457804  |grad|_K:  1.052e-07  alpha:  2.361e-01  linmin: -2.396e-07  t[s]:   7365.94
	FillingsUpdate:  mu: -0.113716379  nElectrons: 232.000000  magneticMoment: [ Abs: 0.00011  Tot: -0.00004 ]
	SubspaceRotationAdjust: set factor to 1.45
ElecMinimize: Iter:  29  G: -375.277280151810373  |grad|_K:  8.421e-08  alpha:  3.107e-01  linmin: -1.067e-06  t[s]:   7482.96
	FillingsUpdate:  mu: -0.113730911  nElectrons: 232.000000  magneticMoment: [ Abs: 0.00009  Tot: -0.00002 ]
	SubspaceRotationAdjust: set factor to 1.42
ElecMinimize: Iter:  30  G: -375.277280613513881  |grad|_K:  7.574e-08  alpha:  2.987e-01  linmin: -2.332e-07  t[s]:   7602.57
	FillingsUpdate:  mu: -0.113776923  nElectrons: 232.000000  magneticMoment: [ Abs: 0.00007  Tot: -0.00001 ]
	SubspaceRotationAdjust: set factor to 1.42
ElecMinimize: Iter:  31  G: -375.277280920045030  |grad|_K:  5.797e-08  alpha:  2.452e-01  linmin:  2.797e-07  t[s]:   7719.71
	FillingsUpdate:  mu: -0.113751864  nElectrons: 232.000000  magneticMoment: [ Abs: 0.00005  Tot: +0.00000 ]
	SubspaceRotationAdjust: set factor to 1.37
ElecMinimize: Iter:  32  G: -375.277281108830493  |grad|_K:  4.304e-08  alpha:  2.578e-01  linmin:  1.086e-06  t[s]:   7835.24
	FillingsUpdate:  mu: -0.113734774  nElectrons: 232.000000  magneticMoment: [ Abs: 0.00004  Tot: +0.00001 ]
	SubspaceRotationAdjust: set factor to 1.47
ElecMinimize: Iter:  33  G: -375.277281241681976  |grad|_K:  3.755e-08  alpha:  3.295e-01  linmin:  1.523e-06  t[s]:   7954.66
	FillingsUpdate:  mu: -0.113760223  nElectrons: 232.000000  magneticMoment: [ Abs: 0.00003  Tot: +0.00001 ]
	SubspaceRotationAdjust: set factor to 1.34
ElecMinimize: Iter:  34  G: -375.277281320333373  |grad|_K:  3.128e-08  alpha:  2.563e-01  linmin:  1.144e-08  t[s]:   8075.72
	FillingsUpdate:  mu: -0.113764233  nElectrons: 232.000000  magneticMoment: [ Abs: 0.00003  Tot: +0.00001 ]
	SubspaceRotationAdjust: set factor to 1.31
ElecMinimize: Iter:  35  G: -375.277281378352825  |grad|_K:  2.442e-08  alpha:  2.721e-01  linmin:  8.205e-07  t[s]:   8192.90
ElecMinimize: Converged (|Delta G|<1.000000e-07 for 2 iters).
Setting wave functions to eigenvectors of Hamiltonian
Converging empty states (this may take a while): |deigs|: 9.808e-03
Vacuum energy after initial minimize, F = -375.277281378352825

Shifting auxilliary hamiltonian by -0.013436 to set nElectrons=232.000000

-------- Electronic minimization -----------
	Linear fluid (dielectric constant: 78.4, screening length: 8.12261 Bohr) occupying 0.711704 of unit cell:	Completed after 24 iterations at t[s]:   8769.14
	FillingsUpdate:  mu: -0.127200000  nElectrons: 232.000000  magneticMoment: [ Abs: 0.00001  Tot: +0.00000 ]
ElecMinimize: Iter:   0  G: -375.286955339284532  |grad|_K:  1.622e-05  alpha:  1.000e+00
	Linear fluid (dielectric constant: 78.4, screening length: 8.12261 Bohr) occupying 0.790548 of unit cell:	Completed after 34 iterations at t[s]:   8892.54
	Linear fluid (dielectric constant: 78.4, screening length: 8.12261 Bohr) occupying 0.711941 of unit cell:	Completed after 24 iterations at t[s]:   8945.85
	FillingsUpdate:  mu: -0.127200000  nElectrons: 232.039664  magneticMoment: [ Abs: 0.00001  Tot: +0.00000 ]
	SubspaceRotationAdjust: set factor to 0.703
ElecMinimize: Iter:   1  G: -375.289542023014917  |grad|_K:  1.385e-05  alpha:  3.149e-02  linmin: -7.194e-03  t[s]:   8998.95
	Linear fluid (dielectric constant: 78.4, screening length: 8.12261 Bohr) occupying 0.712648 of unit cell:	Completed after 16 iterations at t[s]:   9053.00
ElecMinimize: 	Wrong curvature in test step, increasing alphaT to 9.447377e-02.
	Linear fluid (dielectric constant: 78.4, screening length: 8.12261 Bohr) occupying 0.712648 of unit cell:	Completed after 0 iterations at t[s]:   9078.59
	FillingsUpdate:  mu: -0.127200000  nElectrons: 232.251331  magneticMoment: [ Abs: 0.00001  Tot: +0.00000 ]
	SubspaceRotationAdjust: set factor to 0.39
ElecMinimize: Iter:   2  G: -375.296984958354244  |grad|_K:  1.175e-05  alpha: -2.706e-02  linmin: -1.107e-02  t[s]:   9128.89
	Linear fluid (dielectric constant: 78.4, screening length: 8.12261 Bohr) occupying 0.794665 of unit cell:	Completed after 26 iterations at t[s]:   9187.74
	Linear fluid (dielectric constant: 78.4, screening length: 8.12261 Bohr) occupying 0.713052 of unit cell:	Completed after 25 iterations at t[s]:   9240.56
	FillingsUpdate:  mu: -0.127200000  nElectrons: 232.356515  magneticMoment: [ Abs: 0.00001  Tot: +0.00000 ]
	SubspaceRotationAdjust: set factor to 0.277
ElecMinimize: Iter:   3  G: -375.299896365620498  |grad|_K:  7.129e-06  alpha:  1.500e-02  linmin: -6.416e-03  t[s]:   9290.84
	Linear fluid (dielectric constant: 78.4, screening length: 8.12261 Bohr) occupying 0.713215 of unit cell:	Completed after 11 iterations at t[s]:   9340.41
ElecMinimize: 	Predicted alpha/alphaT>3.000000, increasing alphaT to 4.501308e-02.
	Linear fluid (dielectric constant: 78.4, screening length: 8.12261 Bohr) occupying 0.713458 of unit cell:	Completed after 11 iterations at t[s]:   9385.25
	Linear fluid (dielectric constant: 78.4, screening length: 8.12261 Bohr) occupying 0.713625 of unit cell:	Completed after 9 iterations at t[s]:   9428.73
	FillingsUpdate:  mu: -0.127200000  nElectrons: 232.436722  magneticMoment: [ Abs: 0.00001  Tot: +0.00000 ]
	SubspaceRotationAdjust: set factor to 0.389
ElecMinimize: Iter:   4  G: -375.303165436752977  |grad|_K:  4.540e-06  alpha:  7.415e-02  linmin: -2.673e-03  t[s]:   9479.06
	Linear fluid (dielectric constant: 78.4, screening length: 8.12261 Bohr) occupying 0.713841 of unit cell:	Completed after 10 iterations at t[s]:   9529.41
ElecMinimize: 	Predicted alpha/alphaT>3.000000, increasing alphaT to 2.224391e-01.
	Linear fluid (dielectric constant: 78.4, screening length: 8.12261 Bohr) occupying 0.714283 of unit cell:	Completed after 13 iterations at t[s]:   9574.17
	Linear fluid (dielectric constant: 78.4, screening length: 8.12261 Bohr) occupying 0.719859 of unit cell:	Completed after 21 iterations at t[s]:   9623.67
ElecMinimize: 	Step increased G by 6.665942e-03, reducing alpha to 4.610506e-02.
	Linear fluid (dielectric constant: 78.4, screening length: 8.12261 Bohr) occupying 0.713762 of unit cell:	Completed after 19 iterations at t[s]:   9719.23
	FillingsUpdate:  mu: -0.127200000  nElectrons: 232.441308  magneticMoment: [ Abs: 0.00001  Tot: +0.00000 ]
	SubspaceRotationAdjust: set factor to 0.481
ElecMinimize: Iter:   5  G: -375.304021042886006  |grad|_K:  4.377e-06  alpha:  4.611e-02  linmin: -3.304e-03  t[s]:   9769.48
	Linear fluid (dielectric constant: 78.4, screening length: 8.12261 Bohr) occupying 0.713931 of unit cell:	Completed after 10 iterations at t[s]:   9819.75
ElecMinimize: 	Predicted alpha/alphaT>3.000000, increasing alphaT to 1.383152e-01.
	Linear fluid (dielectric constant: 78.4, screening length: 8.12261 Bohr) occupying 0.714294 of unit cell:	Completed after 13 iterations at t[s]:   9865.75
	Linear fluid (dielectric constant: 78.4, screening length: 8.12261 Bohr) occupying 0.723994 of unit cell:	Completed after 22 iterations at t[s]:   9917.52
ElecMinimize: 	Step increased G by 3.003190e-02, reducing alpha to 3.681453e-02.
	Linear fluid (dielectric constant: 78.4, screening length: 8.12261 Bohr) occupying 0.713897 of unit cell:	Completed after 21 iterations at t[s]:  10014.03
	FillingsUpdate:  mu: -0.127200000  nElectrons: 232.443551  magneticMoment: [ Abs: 0.00001  Tot: +0.00000 ]
	SubspaceRotationAdjust: set factor to 0.552
ElecMinimize: Iter:   6  G: -375.304860809037621  |grad|_K:  4.097e-06  alpha:  3.681e-02  linmin: -3.486e-03  t[s]:  10064.19
	Linear fluid (dielectric constant: 78.4, screening length: 8.12261 Bohr) occupying 0.714057 of unit cell:	Completed after 10 iterations at t[s]:  10113.15
ElecMinimize: 	Predicted alpha/alphaT>3.000000, increasing alphaT to 1.104436e-01.
	Linear fluid (dielectric constant: 78.4, screening length: 8.12261 Bohr) occupying 0.714443 of unit cell:	Completed after 11 iterations at t[s]:  10156.52
ElecMinimize: 	Predicted alpha/alphaT>3.000000, increasing alphaT to 3.313307e-01.
	Linear fluid (dielectric constant: 78.4, screening length: 8.12261 Bohr) occupying 0.733128 of unit cell:	Completed after 25 iterations at t[s]:  10208.57
	Linear fluid (dielectric constant: 78.4, screening length: 8.12261 Bohr) occupying 0.713948 of unit cell:	Completed after 22 iterations at t[s]:  10260.67
	FillingsUpdate:  mu: -0.127200000  nElectrons: 232.444193  magneticMoment: [ Abs: 0.00001  Tot: +0.00000 ]
	SubspaceRotationAdjust: set factor to 0.592
ElecMinimize: Iter:   7  G: -375.305164886536943  |grad|_K:  4.059e-06  alpha:  1.195e-02  linmin: -3.469e-03  t[s]:  10311.29
	Linear fluid (dielectric constant: 78.4, screening length: 8.12261 Bohr) occupying 0.714013 of unit cell:	Completed after 8 iterations at t[s]:  10360.34
ElecMinimize: 	Predicted alpha/alphaT>3.000000, increasing alphaT to 3.585090e-02.
	Linear fluid (dielectric constant: 78.4, screening length: 8.12261 Bohr) occupying 0.714148 of unit cell:	Completed after 9 iterations at t[s]:  10403.83
ElecMinimize: 	Predicted alpha/alphaT>3.000000, increasing alphaT to 1.075527e-01.
	Linear fluid (dielectric constant: 78.4, screening length: 8.12261 Bohr) occupying 0.714812 of unit cell:	Completed after 13 iterations at t[s]:  10448.49
ElecMinimize: 	Wrong curvature in test step, increasing alphaT to 3.226581e-01.
	Linear fluid (dielectric constant: 78.4, screening length: 8.12261 Bohr) occupying 0.714812 of unit cell:	Completed after 0 iterations at t[s]:  10474.17
	FillingsUpdate:  mu: -0.127200000  nElectrons: 232.498450  magneticMoment: [ Abs: 0.00001  Tot: +0.00000 ]
	SubspaceRotationAdjust: set factor to 0.381
ElecMinimize: Iter:   8  G: -375.308581027489652  |grad|_K:  4.468e-06  alpha: -9.902e+00  linmin: -6.844e-03  t[s]:  10526.67
	Linear fluid (dielectric constant: 78.4, screening length: 8.12261 Bohr) occupying 0.793161 of unit cell:	Completed after 28 iterations at t[s]:  10588.19
	Linear fluid (dielectric constant: 78.4, screening length: 8.12261 Bohr) occupying 0.715008 of unit cell:	Completed after 25 iterations at t[s]:  10642.07
	FillingsUpdate:  mu: -0.127200000  nElectrons: 232.523408  magneticMoment: [ Abs: 0.00001  Tot: +0.00000 ]
	SubspaceRotationAdjust: set factor to 0.285
ElecMinimize: Iter:   9  G: -375.309043350024581  |grad|_K:  3.674e-06  alpha:  7.136e-03  linmin: -7.045e-03  t[s]:  10692.52
	Linear fluid (dielectric constant: 78.4, screening length: 8.12261 Bohr) occupying 0.715202 of unit cell:	Completed after 11 iterations at t[s]:  10741.96
ElecMinimize: 	Predicted alpha/alphaT>3.000000, increasing alphaT to 2.140852e-02.
	Linear fluid (dielectric constant: 78.4, screening length: 8.12261 Bohr) occupying 0.715768 of unit cell:	Completed after 15 iterations at t[s]:  10789.41
	Linear fluid (dielectric constant: 78.4, screening length: 8.12261 Bohr) occupying 0.717017 of unit cell:	Completed after 17 iterations at t[s]:  10836.68
ElecMinimize: 	Step increased G by 7.096767e-04, reducing alpha to 3.929513e-03.
	Linear fluid (dielectric constant: 78.4, screening length: 8.12261 Bohr) occupying 0.715109 of unit cell:	Completed after 17 iterations at t[s]:  10932.26
	FillingsUpdate:  mu: -0.127200000  nElectrons: 232.536440  magneticMoment: [ Abs: 0.00001  Tot: +0.00000 ]
	SubspaceRotationAdjust: set factor to 0.249
ElecMinimize: Iter:  10  G: -375.309244454711006  |grad|_K:  3.286e-06  alpha:  3.930e-03  linmin: -6.774e-03  t[s]:  10985.24
	Linear fluid (dielectric constant: 78.4, screening length: 8.12261 Bohr) occupying 0.715207 of unit cell:	Completed after 9 iterations at t[s]:  11034.84
ElecMinimize: 	Predicted alpha/alphaT>3.000000, increasing alphaT to 1.178854e-02.
	Linear fluid (dielectric constant: 78.4, screening length: 8.12261 Bohr) occupying 0.715439 of unit cell:	Completed after 13 iterations at t[s]:  11080.79
ElecMinimize: 	Predicted alpha/alphaT>3.000000, increasing alphaT to 3.536562e-02.
	Linear fluid (dielectric constant: 78.4, screening length: 8.12261 Bohr) occupying 0.716576 of unit cell:	Completed after 17 iterations at t[s]:  11128.09
	Linear fluid (dielectric constant: 78.4, screening length: 8.12261 Bohr) occupying 0.715701 of unit cell:	Completed after 16 iterations at t[s]:  11174.82
	FillingsUpdate:  mu: -0.127200000  nElectrons: 232.612997  magneticMoment: [ Abs: 0.00001  Tot: +0.00000 ]
	SubspaceRotationAdjust: set factor to 0.228
ElecMinimize: Iter:  11  G: -375.309890965811178  |grad|_K:  3.836e-06  alpha:  1.888e-02  linmin: -1.559e-03  t[s]:  11227.74
	Linear fluid (dielectric constant: 78.4, screening length: 8.12261 Bohr) occupying 0.717257 of unit cell:	Completed after 17 iterations at t[s]:  11281.09
	Linear fluid (dielectric constant: 78.4, screening length: 8.12261 Bohr) occupying 0.715821 of unit cell:	Completed after 17 iterations at t[s]:  11329.81
	FillingsUpdate:  mu: -0.127200000  nElectrons: 232.628114  magneticMoment: [ Abs: 0.00001  Tot: +0.00000 ]
	SubspaceRotationAdjust: set factor to 0.197
ElecMinimize: Iter:  12  G: -375.309926780907858  |grad|_K:  4.159e-06  alpha:  2.072e-03  linmin: -7.777e-04  t[s]:  11383.29
	Linear fluid (dielectric constant: 78.4, screening length: 8.12261 Bohr) occupying 0.715973 of unit cell:	Completed after 11 iterations at t[s]:  11434.04
	Linear fluid (dielectric constant: 78.4, screening length: 8.12261 Bohr) occupying 0.715956 of unit cell:	Completed after 3 iterations at t[s]:  11472.61
	FillingsUpdate:  mu: -0.127200000  nElectrons: 232.644869  magneticMoment: [ Abs: 0.00001  Tot: +0.00000 ]
	SubspaceRotationAdjust: set factor to 0.164
	SubspaceRotationAdjust: resetting CG because factor has changed by 0.12472
	Linear fluid (dielectric constant: 78.4, screening length: 8.12261 Bohr) occupying 0.715956 of unit cell:	Completed after 0 iterations at t[s]:  11549.01
ElecMinimize: 	State modified externally: resetting search direction.
ElecMinimize: Iter:  13  G: -375.309944596084279  |grad|_K:  4.257e-06  alpha:  1.847e-03
	Linear fluid (dielectric constant: 78.4, screening length: 8.12261 Bohr) occupying 0.715953 of unit cell:	Completed after 2 iterations at t[s]:  11644.36
ElecMinimize: 	Predicted alpha/alphaT>3.000000, increasing alphaT to 5.540157e-03.
	Linear fluid (dielectric constant: 78.4, screening length: 8.12261 Bohr) occupying 0.715949 of unit cell:	Completed after 2 iterations at t[s]:  11682.04
ElecMinimize: 	Predicted alpha/alphaT>3.000000, increasing alphaT to 1.662047e-02.
	Linear fluid (dielectric constant: 78.4, screening length: 8.12261 Bohr) occupying 0.715934 of unit cell:	Completed after 3 iterations at t[s]:  11720.38
ElecMinimize: 	Predicted alpha/alphaT>3.000000, increasing alphaT to 4.986142e-02.
	Linear fluid (dielectric constant: 78.4, screening length: 8.12261 Bohr) occupying 0.715704 of unit cell:	Completed after 14 iterations at t[s]:  11765.52
	FillingsUpdate:  mu: -0.127200000  nElectrons: 232.612333  magneticMoment: [ Abs: 0.00001  Tot: +0.00000 ]
	SubspaceRotationAdjust: set factor to 0.151
ElecMinimize: Iter:  14  G: -375.310990943941590  |grad|_K:  2.695e-06  alpha:  2.344e-01  linmin: -5.289e-03  t[s]:  11816.07
	Linear fluid (dielectric constant: 78.4, screening length: 8.12261 Bohr) occupying 0.715953 of unit cell:	Completed after 10 iterations at t[s]:  11866.56
ElecMinimize: 	Predicted alpha/alphaT>3.000000, increasing alphaT to 7.030885e-01.
	Linear fluid (dielectric constant: 78.4, screening length: 8.12261 Bohr) occupying 0.716651 of unit cell:	Completed after 13 iterations at t[s]:  11912.22
ElecMinimize: 	Predicted alpha/alphaT>3.000000, increasing alphaT to 2.109265e+00.
	Linear fluid (dielectric constant: 78.4, screening length: 8.12261 Bohr) occupying 0.721673 of unit cell:	Completed after 19 iterations at t[s]:  11962.92
	Linear fluid (dielectric constant: 78.4, screening length: 8.12261 Bohr) occupying 0.718501 of unit cell:	Completed after 17 iterations at t[s]:  12012.69
	FillingsUpdate:  mu: -0.127200000  nElectrons: 232.965893  magneticMoment: [ Abs: 0.00001  Tot: +0.00001 ]
	SubspaceRotationAdjust: set factor to 0.142
ElecMinimize: Iter:  15  G: -375.314537263198247  |grad|_K:  2.277e-06  alpha:  1.401e+00  linmin: -3.974e-04  t[s]:  12064.24
	Linear fluid (dielectric constant: 78.4, screening length: 8.12261 Bohr) occupying 0.721770 of unit cell:	Completed after 17 iterations at t[s]:  12118.51
	Linear fluid (dielectric constant: 78.4, screening length: 8.12261 Bohr) occupying 0.719698 of unit cell:	Completed after 16 iterations at t[s]:  12166.56
	FillingsUpdate:  mu: -0.127200000  nElectrons: 233.106744  magneticMoment: [ Abs: 0.00001  Tot: +0.00001 ]
	SubspaceRotationAdjust: set factor to 0.185
ElecMinimize: Iter:  16  G: -375.315264199334706  |grad|_K:  1.644e-06  alpha:  6.019e-01  linmin: -9.289e-07  t[s]:  12220.46
	Linear fluid (dielectric constant: 78.4, screening length: 8.12261 Bohr) occupying 0.720034 of unit cell:	Completed after 10 iterations at t[s]:  12270.32
	Linear fluid (dielectric constant: 78.4, screening length: 8.12261 Bohr) occupying 0.720034 of unit cell:	Completed after 0 iterations at t[s]:  12308.25
	FillingsUpdate:  mu: -0.127200000  nElectrons: 233.154429  magneticMoment: [ Abs: 0.00001  Tot: +0.00001 ]
	SubspaceRotationAdjust: set factor to 0.188
ElecMinimize: Iter:  17  G: -375.315618287392397  |grad|_K:  1.435e-06  alpha:  6.013e-01  linmin:  3.238e-05  t[s]:  12359.49
	Linear fluid (dielectric constant: 78.4, screening length: 8.12261 Bohr) occupying 0.719380 of unit cell:	Completed after 14 iterations at t[s]:  12413.43
	Linear fluid (dielectric constant: 78.4, screening length: 8.12261 Bohr) occupying 0.719526 of unit cell:	Completed after 10 iterations at t[s]:  12457.13
	FillingsUpdate:  mu: -0.127200000  nElectrons: 233.118703  magneticMoment: [ Abs: 0.00002  Tot: +0.00001 ]
	SubspaceRotationAdjust: set factor to 0.165
ElecMinimize: Iter:  18  G: -375.315822176471556  |grad|_K:  1.347e-06  alpha:  4.611e-01  linmin: -1.745e-05  t[s]:  12508.70
	Linear fluid (dielectric constant: 78.4, screening length: 8.12261 Bohr) occupying 0.719579 of unit cell:	Completed after 10 iterations at t[s]:  12559.88
	Linear fluid (dielectric constant: 78.4, screening length: 8.12261 Bohr) occupying 0.719569 of unit cell:	Completed after 4 iterations at t[s]:  12600.90
	FillingsUpdate:  mu: -0.127200000  nElectrons: 233.128424  magneticMoment: [ Abs: 0.00002  Tot: +0.00002 ]
	SubspaceRotationAdjust: set factor to 0.132
ElecMinimize: Iter:  19  G: -375.315984684521084  |grad|_K:  1.015e-06  alpha:  4.067e-01  linmin:  7.085e-05  t[s]:  12652.20
	Linear fluid (dielectric constant: 78.4, screening length: 8.12261 Bohr) occupying 0.719453 of unit cell:	Completed after 8 iterations at t[s]:  12700.45
	Linear fluid (dielectric constant: 78.4, screening length: 8.12261 Bohr) occupying 0.719424 of unit cell:	Completed after 3 iterations at t[s]:  12739.31
	FillingsUpdate:  mu: -0.127200000  nElectrons: 233.114653  magneticMoment: [ Abs: 0.00003  Tot: +0.00003 ]
	SubspaceRotationAdjust: set factor to 0.13
ElecMinimize: Iter:  20  G: -375.316098266744405  |grad|_K:  7.449e-07  alpha:  5.160e-01  linmin: -2.707e-05  t[s]:  12792.90
	Linear fluid (dielectric constant: 78.4, screening length: 8.12261 Bohr) occupying 0.719451 of unit cell:	Completed after 4 iterations at t[s]:  12838.88
	Linear fluid (dielectric constant: 78.4, screening length: 8.12261 Bohr) occupying 0.719456 of unit cell:	Completed after 2 iterations at t[s]:  12878.98
	FillingsUpdate:  mu: -0.127200000  nElectrons: 233.108947  magneticMoment: [ Abs: 0.00003  Tot: +0.00003 ]
	SubspaceRotationAdjust: set factor to 0.135
ElecMinimize: Iter:  21  G: -375.316170320191645  |grad|_K:  5.332e-07  alpha:  5.915e-01  linmin:  3.672e-06  t[s]:  12932.74
	Linear fluid (dielectric constant: 78.4, screening length: 8.12261 Bohr) occupying 0.719530 of unit cell:	Completed after 3 iterations at t[s]:  12979.78
	Linear fluid (dielectric constant: 78.4, screening length: 8.12261 Bohr) occupying 0.719540 of unit cell:	Completed after 2 iterations at t[s]:  13019.53
	FillingsUpdate:  mu: -0.127200000  nElectrons: 233.103930  magneticMoment: [ Abs: 0.00004  Tot: +0.00004 ]
	SubspaceRotationAdjust: set factor to 0.138
ElecMinimize: Iter:  22  G: -375.316211676686123  |grad|_K:  4.023e-07  alpha:  6.686e-01  linmin:  3.924e-06  t[s]:  13073.25
	Linear fluid (dielectric constant: 78.4, screening length: 8.12261 Bohr) occupying 0.719570 of unit cell:	Completed after 4 iterations at t[s]:  13120.99
	Linear fluid (dielectric constant: 78.4, screening length: 8.12261 Bohr) occupying 0.719562 of unit cell:	Completed after 2 iterations at t[s]:  13160.98
	FillingsUpdate:  mu: -0.127200000  nElectrons: 233.098154  magneticMoment: [ Abs: 0.00005  Tot: +0.00005 ]
	SubspaceRotationAdjust: set factor to 0.139
ElecMinimize: Iter:  23  G: -375.316228920250012  |grad|_K:  2.932e-07  alpha:  4.909e-01  linmin:  4.382e-06  t[s]:  13215.31
	Linear fluid (dielectric constant: 78.4, screening length: 8.12261 Bohr) occupying 0.719634 of unit cell:	Completed after 4 iterations at t[s]:  13261.45
	Linear fluid (dielectric constant: 78.4, screening length: 8.12261 Bohr) occupying 0.719628 of unit cell:	Completed after 0 iterations at t[s]:  13300.39
	FillingsUpdate:  mu: -0.127200000  nElectrons: 233.099678  magneticMoment: [ Abs: 0.00006  Tot: +0.00006 ]
	SubspaceRotationAdjust: set factor to 0.122
ElecMinimize: Iter:  24  G: -375.316237325256964  |grad|_K:  2.372e-07  alpha:  4.487e-01  linmin:  2.607e-04  t[s]:  13351.80
	Linear fluid (dielectric constant: 78.4, screening length: 8.12261 Bohr) occupying 0.719591 of unit cell:	Completed after 4 iterations at t[s]:  13397.99
	Linear fluid (dielectric constant: 78.4, screening length: 8.12261 Bohr) occupying 0.719590 of unit cell:	Completed after 0 iterations at t[s]:  13436.17
	FillingsUpdate:  mu: -0.127200000  nElectrons: 233.093825  magneticMoment: [ Abs: 0.00008  Tot: +0.00007 ]
	SubspaceRotationAdjust: set factor to 0.128
ElecMinimize: Iter:  25  G: -375.316242822314678  |grad|_K:  1.621e-07  alpha:  4.587e-01  linmin: -3.421e-04  t[s]:  13490.35
	Linear fluid (dielectric constant: 78.4, screening length: 8.12261 Bohr) occupying 0.719578 of unit cell:	Completed after 3 iterations at t[s]:  13537.24
	Linear fluid (dielectric constant: 78.4, screening length: 8.12261 Bohr) occupying 0.719573 of unit cell:	Completed after 0 iterations at t[s]:  13573.85
	FillingsUpdate:  mu: -0.127200000  nElectrons: 233.091879  magneticMoment: [ Abs: 0.00010  Tot: +0.00009 ]
	SubspaceRotationAdjust: set factor to 0.165
ElecMinimize: Iter:  26  G: -375.316246526182226  |grad|_K:  1.275e-07  alpha:  6.209e-01  linmin: -4.257e-04  t[s]:  13627.44
	Linear fluid (dielectric constant: 78.4, screening length: 8.12261 Bohr) occupying 0.719574 of unit cell:	Completed after 3 iterations at t[s]:  13672.76
	Linear fluid (dielectric constant: 78.4, screening length: 8.12261 Bohr) occupying 0.719574 of unit cell:	Completed after 0 iterations at t[s]:  13709.18
	FillingsUpdate:  mu: -0.127200000  nElectrons: 233.092902  magneticMoment: [ Abs: 0.00012  Tot: +0.00012 ]
	SubspaceRotationAdjust: set factor to 0.184
ElecMinimize: Iter:  27  G: -375.316248998769538  |grad|_K:  1.195e-07  alpha:  6.685e-01  linmin: -1.676e-04  t[s]:  13760.08
	Linear fluid (dielectric constant: 78.4, screening length: 8.12261 Bohr) occupying 0.719538 of unit cell:	Completed after 3 iterations at t[s]:  13805.32
	Linear fluid (dielectric constant: 78.4, screening length: 8.12261 Bohr) occupying 0.719546 of unit cell:	Completed after 0 iterations at t[s]:  13841.72
	FillingsUpdate:  mu: -0.127200000  nElectrons: 233.091786  magneticMoment: [ Abs: 0.00016  Tot: +0.00015 ]
	SubspaceRotationAdjust: set factor to 0.178
ElecMinimize: Iter:  28  G: -375.316250707641018  |grad|_K:  1.241e-07  alpha:  5.233e-01  linmin:  2.580e-04  t[s]:  13893.03
	Linear fluid (dielectric constant: 78.4, screening length: 8.12261 Bohr) occupying 0.719553 of unit cell:	Completed after 3 iterations at t[s]:  13939.78
	Linear fluid (dielectric constant: 78.4, screening length: 8.12261 Bohr) occupying 0.719550 of unit cell:	Completed after 2 iterations at t[s]:  13977.98
	FillingsUpdate:  mu: -0.127200000  nElectrons: 233.093278  magneticMoment: [ Abs: 0.00019  Tot: +0.00018 ]
	SubspaceRotationAdjust: set factor to 0.145
ElecMinimize: Iter:  29  G: -375.316251559463126  |grad|_K:  1.020e-07  alpha:  2.967e-01  linmin:  4.807e-05  t[s]:  14029.04
	Linear fluid (dielectric constant: 78.4, screening length: 8.12261 Bohr) occupying 0.719527 of unit cell:	Completed after 2 iterations at t[s]:  14075.29
	Linear fluid (dielectric constant: 78.4, screening length: 8.12261 Bohr) occupying 0.719519 of unit cell:	Completed after 0 iterations at t[s]:  14111.73
	FillingsUpdate:  mu: -0.127200000  nElectrons: 233.091816  magneticMoment: [ Abs: 0.00025  Tot: +0.00024 ]
	SubspaceRotationAdjust: set factor to 0.171
ElecMinimize: Iter:  30  G: -375.316252491933028  |grad|_K:  7.199e-08  alpha:  4.020e-01  linmin: -3.855e-04  t[s]:  14162.88
	Linear fluid (dielectric constant: 78.4, screening length: 8.12261 Bohr) occupying 0.719499 of unit cell:	Completed after 3 iterations at t[s]:  14209.57
	Linear fluid (dielectric constant: 78.4, screening length: 8.12261 Bohr) occupying 0.719501 of unit cell:	Completed after 0 iterations at t[s]:  14246.06
	FillingsUpdate:  mu: -0.127200000  nElectrons: 233.090847  magneticMoment: [ Abs: 0.00029  Tot: +0.00028 ]
	SubspaceRotationAdjust: set factor to 0.139
ElecMinimize: Iter:  31  G: -375.316252927175867  |grad|_K:  9.081e-08  alpha:  3.585e-01  linmin: -4.635e-04  t[s]:  14297.50
	Linear fluid (dielectric constant: 78.4, screening length: 8.12261 Bohr) occupying 0.719508 of unit cell:	Completed after 2 iterations at t[s]:  14342.04
	Linear fluid (dielectric constant: 78.4, screening length: 8.12261 Bohr) occupying 0.719505 of unit cell:	Completed after 1 iterations at t[s]:  14381.03
	FillingsUpdate:  mu: -0.127200000  nElectrons: 233.091923  magneticMoment: [ Abs: 0.00036  Tot: +0.00034 ]
	SubspaceRotationAdjust: set factor to 0.152
ElecMinimize: Iter:  32  G: -375.316253376821521  |grad|_K:  5.101e-08  alpha:  2.261e-01  linmin:  1.970e-04  t[s]:  14432.15
	Linear fluid (dielectric constant: 78.4, screening length: 8.12261 Bohr) occupying 0.719509 of unit cell:	Completed after 0 iterations at t[s]:  14475.00
	Linear fluid (dielectric constant: 78.4, screening length: 8.12261 Bohr) occupying 0.719514 of unit cell:	Completed after 3 iterations at t[s]:  14513.94
	FillingsUpdate:  mu: -0.127200000  nElectrons: 233.093176  magneticMoment: [ Abs: 0.00046  Tot: +0.00044 ]
	SubspaceRotationAdjust: set factor to 0.153
ElecMinimize: Iter:  33  G: -375.316253604062240  |grad|_K:  5.036e-08  alpha:  6.224e-01  linmin:  9.920e-04  t[s]:  14568.07
	Linear fluid (dielectric constant: 78.4, screening length: 8.12261 Bohr) occupying 0.719502 of unit cell:	Completed after 2 iterations at t[s]:  14612.78
	Linear fluid (dielectric constant: 78.4, screening length: 8.12261 Bohr) occupying 0.719508 of unit cell:	Completed after 0 iterations at t[s]:  14650.47
	FillingsUpdate:  mu: -0.127200000  nElectrons: 233.092733  magneticMoment: [ Abs: 0.00055  Tot: +0.00053 ]
	SubspaceRotationAdjust: set factor to 0.13
ElecMinimize: Iter:  34  G: -375.316253750335761  |grad|_K:  4.769e-08  alpha:  3.195e-01  linmin:  4.384e-04  t[s]:  14701.87
	Linear fluid (dielectric constant: 78.4, screening length: 8.12261 Bohr) occupying 0.719510 of unit cell:	Completed after 2 iterations at t[s]:  14747.97
	Linear fluid (dielectric constant: 78.4, screening length: 8.12261 Bohr) occupying 0.719509 of unit cell:	Completed after 0 iterations at t[s]:  14785.92
	FillingsUpdate:  mu: -0.127200000  nElectrons: 233.092832  magneticMoment: [ Abs: 0.00063  Tot: +0.00061 ]
	SubspaceRotationAdjust: set factor to 0.106
ElecMinimize: Iter:  35  G: -375.316253808010345  |grad|_K:  3.561e-08  alpha:  1.952e-01  linmin: -2.696e-04  t[s]:  14840.02
	Linear fluid (dielectric constant: 78.4, screening length: 8.12261 Bohr) occupying 0.719506 of unit cell:	Completed after 0 iterations at t[s]:  14882.86
	Linear fluid (dielectric constant: 78.4, screening length: 8.12261 Bohr) occupying 0.719499 of unit cell:	Completed after 1 iterations at t[s]:  14922.14
	FillingsUpdate:  mu: -0.127200000  nElectrons: 233.091675  magneticMoment: [ Abs: 0.00082  Tot: +0.00079 ]
	SubspaceRotationAdjust: set factor to 0.113
ElecMinimize: Iter:  36  G: -375.316253900185245  |grad|_K:  2.978e-08  alpha:  5.360e-01  linmin:  9.425e-04  t[s]:  14973.27
ElecMinimize: Converged (|Delta G|<1.000000e-07 for 2 iters).
Setting wave functions to eigenvectors of Hamiltonian
Converging empty states (this may take a while): |deigs|: 1.177e-03
Single-point solvation energy estimate, DeltaG = -0.038972521832420

Computing DFT-D3 correction:
# coordination-number C 3.300 3.321 3.334 3.333 3.313 3.289 3.330 3.645 3.330 3.313 3.301 3.322 3.305 3.301 3.324 3.536 3.265 3.299 3.320 3.335 3.328 3.300 3.302 3.326 3.334 3.320 3.300 3.268 3.632 3.324 3.300 3.303 3.327 3.302 3.313 3.330 3.536 3.315 3.288 3.311 3.332 3.335 3.322 3.299 2.999
# coordination-number N 3.181 3.170 3.180 3.174
# coordination-number Ti 7.418
# coordination-number O 1.989 1.057 1.981
# coordination-number H 1.007 0.996
# diagonal-C6 C 24.28 24.08 23.93 23.95 24.16 24.39 23.98 19.78 23.98 24.15 24.28 24.06 24.23 24.27 24.04 21.12 24.59 24.29 24.08 23.92 24.00 24.28 24.27 24.02 23.93 24.08 24.28 24.57 19.92 24.04 24.28 24.25 24.01 24.27 24.15 23.98 21.12 24.13 24.39 24.17 23.96 23.92 24.06 24.29 25.67
# diagonal-C6 N 15.60 15.60 15.60 15.60
# diagonal-C6 Ti 321.59
# diagonal-C6 O 10.41 12.77 10.42
# diagonal-C6 H 3.09 3.09
EvdW_6 =   -0.044433
EvdW_8 =   -0.034772
Completed 1 of 19 configurations.

Computing DFT-D3 correction:
# coordination-number C 3.300 3.321 3.334 3.333 3.313 3.289 3.330 3.645 3.330 3.313 3.301 3.322 3.305 3.301 3.324 3.536 3.265 3.299 3.320 3.335 3.328 3.300 3.302 3.326 3.334 3.320 3.300 3.268 3.632 3.324 3.300 3.303 3.327 3.302 3.313 3.330 3.536 3.315 3.288 3.311 3.332 3.335 3.322 3.299 2.999
# coordination-number N 3.181 3.170 3.180 3.174
# coordination-number Ti 7.418
# coordination-number O 1.989 1.057 1.981
# coordination-number H 1.007 0.996
# diagonal-C6 C 24.28 24.08 23.93 23.95 24.16 24.39 23.98 19.78 23.98 24.15 24.28 24.06 24.23 24.27 24.04 21.12 24.59 24.29 24.08 23.92 24.00 24.28 24.27 24.02 23.93 24.08 24.28 24.57 19.92 24.04 24.28 24.25 24.01 24.27 24.15 23.98 21.12 24.13 24.39 24.17 23.96 23.92 24.06 24.29 25.67
# diagonal-C6 N 15.60 15.60 15.60 15.60
# diagonal-C6 Ti 321.59
# diagonal-C6 O 10.41 12.77 10.42
# diagonal-C6 H 3.09 3.09
EvdW_6 =   -0.044432
EvdW_8 =   -0.034773
Shifting auxilliary hamiltonian by -0.000002 to set nElectrons=233.091675

-------- Electronic minimization -----------
	Linear fluid (dielectric constant: 78.4, screening length: 8.12261 Bohr) occupying 0.719514 of unit cell:	Completed after 6 iterations at t[s]:  15584.37
	FillingsUpdate:  mu: -0.127200000  nElectrons: 233.091675  magneticMoment: [ Abs: 0.00213  Tot: +0.00209 ]
ElecMinimize: Iter:   0  G: -375.316201766875452  |grad|_K:  3.522e-07  alpha:  1.000e+00
	Linear fluid (dielectric constant: 78.4, screening length: 8.12261 Bohr) occupying 0.719497 of unit cell:	Completed after 3 iterations at t[s]:  15690.00
	Linear fluid (dielectric constant: 78.4, screening length: 8.12261 Bohr) occupying 0.719502 of unit cell:	Completed after 2 iterations at t[s]:  15729.72
	FillingsUpdate:  mu: -0.127200000  nElectrons: 233.090834  magneticMoment: [ Abs: 0.00243  Tot: +0.00235 ]
	SubspaceRotationAdjust: set factor to 0.121
ElecMinimize: Iter:   1  G: -375.316220888302269  |grad|_K:  1.569e-07  alpha:  7.071e-01  linmin:  1.094e-04  t[s]:  15783.26
	Linear fluid (dielectric constant: 78.4, screening length: 8.12261 Bohr) occupying 0.719541 of unit cell:	Completed after 4 iterations at t[s]:  15829.25
	Linear fluid (dielectric constant: 78.4, screening length: 8.12261 Bohr) occupying 0.719537 of unit cell:	Completed after 2 iterations at t[s]:  15867.72
	FillingsUpdate:  mu: -0.127200000  nElectrons: 233.093976  magneticMoment: [ Abs: 0.00278  Tot: +0.00268 ]
	SubspaceRotationAdjust: set factor to 0.111
ElecMinimize: Iter:   2  G: -375.316224184688451  |grad|_K:  1.378e-07  alpha:  6.213e-01  linmin: -1.656e-05  t[s]:  15918.92
[...]
disp N   0.000000000000000   0.000000000000000   0.000000000000000
disp N   0.000000000000000   0.000000000000000   0.000000000000000
disp N   0.000000000000000   0.000000000000000   0.000000000000000
disp N   0.000000000000000   0.000000000000000   0.000000000000000
disp Ti   0.000000000000000   0.000000000000000   0.000000000000000
disp O  -0.001892857866080   0.002063445526616   0.000471272278895
disp O  -0.000566275303418   0.000757324545119  -0.000989022632395
disp O  -0.000280880577825   0.000288852689932  -0.000447562824462
disp H  -0.001886749434096  -0.001671774521636   0.001178387153583
disp H  -0.000562090455356  -0.004291830731424   0.000517076580447

Real mode 10:
Frequency: 0.007095 Eh [ 1557 cm^-1 ]
Degeneracy: 1 of 1
IR intensity: 10.8267 e^2/amu [ 10554.7 km/mol ]
Displacements:
disp C   0.000000000000000   0.000000000000000   0.000000000000000
disp C   0.000000000000000   0.000000000000000   0.000000000000000
disp C   0.000000000000000   0.000000000000000   0.000000000000000
disp C   0.000000000000000   0.000000000000000   0.000000000000000
disp C   0.000000000000000   0.000000000000000   0.000000000000000
disp C   0.000000000000000   0.000000000000000   0.000000000000000
disp C   0.000000000000000   0.000000000000000   0.000000000000000
disp C   0.000000000000000   0.000000000000000   0.000000000000000
disp C   0.000000000000000   0.000000000000000   0.000000000000000
disp C   0.000000000000000   0.000000000000000   0.000000000000000
disp C   0.000000000000000   0.000000000000000   0.000000000000000
disp C   0.000000000000000   0.000000000000000   0.000000000000000
disp C   0.000000000000000   0.000000000000000   0.000000000000000
disp C   0.000000000000000   0.000000000000000   0.000000000000000
disp C   0.000000000000000   0.000000000000000   0.000000000000000
disp C   0.000000000000000   0.000000000000000   0.000000000000000
disp C   0.000000000000000   0.000000000000000   0.000000000000000
disp C   0.000000000000000   0.000000000000000   0.000000000000000
disp C   0.000000000000000   0.000000000000000   0.000000000000000
disp C   0.000000000000000   0.000000000000000   0.000000000000000
disp C   0.000000000000000   0.000000000000000   0.000000000000000
disp C   0.000000000000000   0.000000000000000   0.000000000000000
disp C   0.000000000000000   0.000000000000000   0.000000000000000
disp C   0.000000000000000   0.000000000000000   0.000000000000000
disp C   0.000000000000000   0.000000000000000   0.000000000000000
disp C   0.000000000000000   0.000000000000000   0.000000000000000
disp C   0.000000000000000   0.000000000000000   0.000000000000000
disp C   0.000000000000000   0.000000000000000   0.000000000000000
disp C   0.000000000000000   0.000000000000000   0.000000000000000
disp C   0.000000000000000   0.000000000000000   0.000000000000000
disp C   0.000000000000000   0.000000000000000   0.000000000000000
disp C   0.000000000000000   0.000000000000000   0.000000000000000
disp C   0.000000000000000   0.000000000000000   0.000000000000000
disp C   0.000000000000000   0.000000000000000   0.000000000000000
disp C   0.000000000000000   0.000000000000000   0.000000000000000
disp C   0.000000000000000   0.000000000000000   0.000000000000000
disp C   0.000000000000000   0.000000000000000   0.000000000000000
disp C   0.000000000000000   0.000000000000000   0.000000000000000
disp C   0.000000000000000   0.000000000000000   0.000000000000000
disp C   0.000000000000000   0.000000000000000   0.000000000000000
disp C   0.000000000000000   0.000000000000000   0.000000000000000
disp C   0.000000000000000   0.000000000000000   0.000000000000000
disp C   0.000000000000000   0.000000000000000   0.000000000000000
disp C   0.000000000000000   0.000000000000000   0.000000000000000
disp C  -0.000424886505708   0.000623611237705  -0.001963931668819
disp N   0.000000000000000   0.000000000000000   0.000000000000000
disp N   0.000000000000000   0.000000000000000   0.000000000000000
disp N   0.000000000000000   0.000000000000000   0.000000000000000
disp N   0.000000000000000   0.000000000000000   0.000000000000000
disp Ti   0.000000000000000   0.000000000000000   0.000000000000000
disp O  -0.000212790922146  -0.000173807523723  -0.000044297075422
disp O   0.000003154870361  -0.000622842579033   0.000857746981879
disp O  -0.000747458223834   0.000612778204476  -0.001450225085095
disp H   0.000145810099763  -0.001954649369475   0.014163352776144
disp H   0.002314591582004  -0.014601844865008   0.001104015833324

Real mode 11:
Frequency: 0.009738 Eh [ 2137 cm^-1 ]
Degeneracy: 1 of 1
IR intensity: 2071.0495 e^2/amu [ 2019023.7 km/mol ]
Displacements:
disp C   0.000000000000000   0.000000000000000   0.000000000000000
disp C   0.000000000000000   0.000000000000000   0.000000000000000
disp C   0.000000000000000   0.000000000000000   0.000000000000000
disp C   0.000000000000000   0.000000000000000   0.000000000000000
disp C   0.000000000000000   0.000000000000000   0.000000000000000
disp C   0.000000000000000   0.000000000000000   0.000000000000000
disp C   0.000000000000000   0.000000000000000   0.000000000000000
disp C   0.000000000000000   0.000000000000000   0.000000000000000
disp C   0.000000000000000   0.000000000000000   0.000000000000000
disp C   0.000000000000000   0.000000000000000   0.000000000000000
disp C   0.000000000000000   0.000000000000000   0.000000000000000
disp C   0.000000000000000   0.000000000000000   0.000000000000000
disp C   0.000000000000000   0.000000000000000   0.000000000000000
disp C   0.000000000000000   0.000000000000000   0.000000000000000
disp C   0.000000000000000   0.000000000000000   0.000000000000000
disp C   0.000000000000000   0.000000000000000   0.000000000000000
disp C   0.000000000000000   0.000000000000000   0.000000000000000
disp C   0.000000000000000   0.000000000000000   0.000000000000000
disp C   0.000000000000000   0.000000000000000   0.000000000000000
disp C   0.000000000000000   0.000000000000000   0.000000000000000
disp C   0.000000000000000   0.000000000000000   0.000000000000000
disp C   0.000000000000000   0.000000000000000   0.000000000000000
disp C   0.000000000000000   0.000000000000000   0.000000000000000
disp C   0.000000000000000   0.000000000000000   0.000000000000000
disp C   0.000000000000000   0.000000000000000   0.000000000000000
disp C   0.000000000000000   0.000000000000000   0.000000000000000
disp C   0.000000000000000   0.000000000000000   0.000000000000000
disp C   0.000000000000000   0.000000000000000   0.000000000000000
disp C   0.000000000000000   0.000000000000000   0.000000000000000
disp C   0.000000000000000   0.000000000000000   0.000000000000000
disp C   0.000000000000000   0.000000000000000   0.000000000000000
disp C   0.000000000000000   0.000000000000000   0.000000000000000
disp C   0.000000000000000   0.000000000000000   0.000000000000000
disp C   0.000000000000000   0.000000000000000   0.000000000000000
disp C   0.000000000000000   0.000000000000000   0.000000000000000
disp C   0.000000000000000   0.000000000000000   0.000000000000000
disp C   0.000000000000000   0.000000000000000   0.000000000000000
disp C   0.000000000000000   0.000000000000000   0.000000000000000
disp C   0.000000000000000   0.000000000000000   0.000000000000000
disp C   0.000000000000000   0.000000000000000   0.000000000000000
disp C   0.000000000000000   0.000000000000000   0.000000000000000
disp C   0.000000000000000   0.000000000000000   0.000000000000000
disp C   0.000000000000000   0.000000000000000   0.000000000000000
disp C   0.000000000000000   0.000000000000000   0.000000000000000
disp C   0.000500578295298  -0.000562978113035  -0.004029588245574
disp N   0.000000000000000   0.000000000000000   0.000000000000000
disp N   0.000000000000000   0.000000000000000   0.000000000000000
disp N   0.000000000000000   0.000000000000000   0.000000000000000
disp N   0.000000000000000   0.000000000000000   0.000000000000000
disp Ti   0.000000000000000   0.000000000000000   0.000000000000000
disp O  -0.000990726541532   0.000095553517522   0.000256475468258
disp O  -0.000323327508372  -0.000989573096744   0.001880173592681
disp O  -0.000206763960527  -0.000923409013012  -0.000702747130938
disp H  -0.009112839964296  -0.000111001859629  -0.010191995907699
disp H  -0.005771589333112  -0.001360741703785   0.003125358928212

Real mode 12:
Frequency: 0.013653 Eh [ 2996 cm^-1 ]
Degeneracy: 1 of 1
IR intensity: 476.6957 e^2/amu [ 464720.9 km/mol ]
Displacements:
disp C   0.000000000000000   0.000000000000000   0.000000000000000
disp C   0.000000000000000   0.000000000000000   0.000000000000000
disp C   0.000000000000000   0.000000000000000   0.000000000000000
disp C   0.000000000000000   0.000000000000000   0.000000000000000
disp C   0.000000000000000   0.000000000000000   0.000000000000000
disp C   0.000000000000000   0.000000000000000   0.000000000000000
disp C   0.000000000000000   0.000000000000000   0.000000000000000
disp C   0.000000000000000   0.000000000000000   0.000000000000000
disp C   0.000000000000000   0.000000000000000   0.000000000000000
disp C   0.000000000000000   0.000000000000000   0.000000000000000
disp C   0.000000000000000   0.000000000000000   0.000000000000000
disp C   0.000000000000000   0.000000000000000   0.000000000000000
disp C   0.000000000000000   0.000000000000000   0.000000000000000
disp C   0.000000000000000   0.000000000000000   0.000000000000000
disp C   0.000000000000000   0.000000000000000   0.000000000000000
disp C   0.000000000000000   0.000000000000000   0.000000000000000
disp C   0.000000000000000   0.000000000000000   0.000000000000000
disp C   0.000000000000000   0.000000000000000   0.000000000000000
disp C   0.000000000000000   0.000000000000000   0.000000000000000
disp C   0.000000000000000   0.000000000000000   0.000000000000000
disp C   0.000000000000000   0.000000000000000   0.000000000000000
disp C   0.000000000000000   0.000000000000000   0.000000000000000
disp C   0.000000000000000   0.000000000000000   0.000000000000000
disp C   0.000000000000000   0.000000000000000   0.000000000000000
disp C   0.000000000000000   0.000000000000000   0.000000000000000
disp C   0.000000000000000   0.000000000000000   0.000000000000000
disp C   0.000000000000000   0.000000000000000   0.000000000000000
disp C   0.000000000000000   0.000000000000000   0.000000000000000
disp C   0.000000000000000   0.000000000000000   0.000000000000000
disp C   0.000000000000000   0.000000000000000   0.000000000000000
disp C   0.000000000000000   0.000000000000000   0.000000000000000
disp C   0.000000000000000   0.000000000000000   0.000000000000000
disp C   0.000000000000000   0.000000000000000   0.000000000000000
disp C   0.000000000000000   0.000000000000000   0.000000000000000
disp C   0.000000000000000   0.000000000000000   0.000000000000000
disp C   0.000000000000000   0.000000000000000   0.000000000000000
disp C   0.000000000000000   0.000000000000000   0.000000000000000
disp C   0.000000000000000   0.000000000000000   0.000000000000000
disp C   0.000000000000000   0.000000000000000   0.000000000000000
disp C   0.000000000000000   0.000000000000000   0.000000000000000
disp C   0.000000000000000   0.000000000000000   0.000000000000000
disp C   0.000000000000000   0.000000000000000   0.000000000000000
disp C   0.000000000000000   0.000000000000000   0.000000000000000
disp C   0.000000000000000   0.000000000000000   0.000000000000000
disp C   0.000265029766900   0.000150396156295  -0.000733884260195
disp N   0.000000000000000   0.000000000000000   0.000000000000000
disp N   0.000000000000000   0.000000000000000   0.000000000000000
disp N   0.000000000000000   0.000000000000000   0.000000000000000
disp N   0.000000000000000   0.000000000000000   0.000000000000000
disp Ti   0.000000000000000   0.000000000000000   0.000000000000000
disp O  -0.000027600491268   0.000091672778187   0.000220507694643
disp O   0.000098955514787  -0.000176064895674   0.000507520890636
disp O  -0.000414242528809   0.001552694790686   0.000451904746575
disp H   0.007221575979706  -0.020396915831955  -0.004063518821088
disp H   0.000517334930917   0.001300647155813  -0.000435645301843

Real mode 13:
Frequency: 0.017438 Eh [ 3827 cm^-1 ]
Degeneracy: 1 of 1
IR intensity: 1962.4911 e^2/amu [ 1913192.3 km/mol ]
Displacements:
disp C   0.000000000000000   0.000000000000000   0.000000000000000
disp C   0.000000000000000   0.000000000000000   0.000000000000000
disp C   0.000000000000000   0.000000000000000   0.000000000000000
disp C   0.000000000000000   0.000000000000000   0.000000000000000
disp C   0.000000000000000   0.000000000000000   0.000000000000000
disp C   0.000000000000000   0.000000000000000   0.000000000000000
disp C   0.000000000000000   0.000000000000000   0.000000000000000
disp C   0.000000000000000   0.000000000000000   0.000000000000000
disp C   0.000000000000000   0.000000000000000   0.000000000000000
disp C   0.000000000000000   0.000000000000000   0.000000000000000
disp C   0.000000000000000   0.000000000000000   0.000000000000000
disp C   0.000000000000000   0.000000000000000   0.000000000000000
disp C   0.000000000000000   0.000000000000000   0.000000000000000
disp C   0.000000000000000   0.000000000000000   0.000000000000000
disp C   0.000000000000000   0.000000000000000   0.000000000000000
disp C   0.000000000000000   0.000000000000000   0.000000000000000
disp C   0.000000000000000   0.000000000000000   0.000000000000000
disp C   0.000000000000000   0.000000000000000   0.000000000000000
disp C   0.000000000000000   0.000000000000000   0.000000000000000
disp C   0.000000000000000   0.000000000000000   0.000000000000000
disp C   0.000000000000000   0.000000000000000   0.000000000000000
disp C   0.000000000000000   0.000000000000000   0.000000000000000
disp C   0.000000000000000   0.000000000000000   0.000000000000000
disp C   0.000000000000000   0.000000000000000   0.000000000000000
disp C   0.000000000000000   0.000000000000000   0.000000000000000
disp C   0.000000000000000   0.000000000000000   0.000000000000000
disp C   0.000000000000000   0.000000000000000   0.000000000000000
disp C   0.000000000000000   0.000000000000000   0.000000000000000
disp C   0.000000000000000   0.000000000000000   0.000000000000000
disp C   0.000000000000000   0.000000000000000   0.000000000000000
disp C   0.000000000000000   0.000000000000000   0.000000000000000
disp C   0.000000000000000   0.000000000000000   0.000000000000000
disp C   0.000000000000000   0.000000000000000   0.000000000000000
disp C   0.000000000000000   0.000000000000000   0.000000000000000
disp C   0.000000000000000   0.000000000000000   0.000000000000000
disp C   0.000000000000000   0.000000000000000   0.000000000000000
disp C   0.000000000000000   0.000000000000000   0.000000000000000
disp C   0.000000000000000   0.000000000000000   0.000000000000000
disp C   0.000000000000000   0.000000000000000   0.000000000000000
disp C   0.000000000000000   0.000000000000000   0.000000000000000
disp C   0.000000000000000   0.000000000000000   0.000000000000000
disp C   0.000000000000000   0.000000000000000   0.000000000000000
disp C   0.000000000000000   0.000000000000000   0.000000000000000
disp C   0.000000000000000   0.000000000000000   0.000000000000000
disp C  -0.000263949815954   0.000111682769229   0.000681430464622
disp N   0.000000000000000   0.000000000000000   0.000000000000000
disp N   0.000000000000000   0.000000000000000   0.000000000000000
disp N   0.000000000000000   0.000000000000000   0.000000000000000
disp N   0.000000000000000   0.000000000000000   0.000000000000000
disp Ti   0.000000000000000   0.000000000000000   0.000000000000000
disp O   0.000166267754283  -0.000077454090918  -0.000141240453931
disp O   0.000035704953674   0.000122328347175  -0.000404467991193
disp O  -0.000245600431211  -0.000115253272969  -0.001282107381704
disp H   0.000698393524209  -0.000918626140413  -0.000227224343617
disp H   0.004270492560185   0.002963536034179   0.021871836086588

Vibrational free energy components at T = 298 K:
	ZPE:          0.034611
	Evib:         0.037276
	TSvib:        0.004310
	Avib:         0.032966


Dumping 'jdft.n_up' ... done
Dumping 'jdft.n_dn' ... done
Dumping 'jdft.tau_up' ... done
Dumping 'jdft.tau_dn' ... done
Dumping 'jdft.eigenvals' ... done
Dumping 'jdft.eigStats' ... 
	eMin: -2.258027 at state 0 ( [ +0.000000 +0.000000 +0.000000 ] spin 1 )
	HOMO: -0.127737 at state 2 ( [ +0.000000 -0.333333 +0.000000 ] spin 1 )
	mu  : -0.127200
	LUMO: -0.125660 at state 11 ( [ +0.000000 -0.333333 +0.000000 ] spin -1 )
	eMax: +0.019872 at state 9 ( [ +0.000000 +0.000000 +0.000000 ] spin -1 )
	HOMO-LUMO gap: +0.002076
	Optical gap  : +0.003315 at state 2 ( [ +0.000000 -0.333333 +0.000000 ] spin 1 )
Dumping 'jdft.kPts' ... done
Dumping 'jdft.dosUp' ... done.
Dumping 'jdft.dosDn' ... done.
End date and time: Thu Nov 10 03:23:49 2022  (Duration: 0-14:15:01.88)
Done!

PROFILER:             augmentDensityGrid     0.785351 +/-     1.093008 s, 3545 calls,   2784.069649 s total
PROFILER:         augmentDensityGridGrad     0.441940 +/-     0.517642 s, 1915 calls,    846.314947 s total
PROFILER:        augmentDensitySpherical     0.000360 +/-     0.000497 s, 3545 calls,      1.277127 s total
PROFILER:    augmentDensitySphericalGrad     0.000381 +/-     0.000534 s, 2315 calls,      0.883083 s total
PROFILER:                 augmentOverlap     1.402461 +/-     2.031207 s, 7100 calls,   9957.472086 s total
PROFILER:        ColumnBundle::randomize     0.004928 +/-     0.000000 s,    1 calls,      0.004928 s total
PROFILER:                     diagouterI    15.797931 +/-     2.480656 s,  712 calls,  11248.126764 s total
PROFILER:              EdensityAndVscloc     8.050371 +/-     4.824312 s,  710 calls,   5715.763158 s total
PROFILER:                     EnlAndGrad     0.001252 +/-     0.001885 s, 3725 calls,      4.663055 s total
PROFILER:            ExCorrCommunication     0.066542 +/-     0.084886 s, 4471 calls,    297.509203 s total
PROFILER:               ExCorrFunctional     0.020820 +/-     0.003510 s,  768 calls,     15.989902 s total
PROFILER:                    ExCorrTotal     0.646486 +/-     0.155720 s,  768 calls,    496.501011 s total
PROFILER:                   Idag_DiagV_I    28.394375 +/-     8.593171 s,  444 calls,  12607.102471 s total
PROFILER:                    initWeights     1.796880 +/-     0.000000 s,    1 calls,      1.796880 s total
PROFILER:                    inv(matrix)     0.001918 +/-     0.000838 s,  636 calls,      1.220039 s total
PROFILER:            matrix::diagonalize     0.007470 +/-     0.004726 s, 1120 calls,      8.365947 s total
PROFILER:                    matrix::set     0.000002 +/-     0.000003 s, 67002 calls,      0.163872 s total
PROFILER:            orthoMatrix(matrix)     0.001559 +/-     0.000782 s,  698 calls,      1.088386 s total
PROFILER:     RadialFunctionR::transform     0.003928 +/-     0.018517 s,  151 calls,      0.593187 s total
PROFILER:                    reduceKmesh     0.000000 +/-     0.000000 s,    1 calls,      0.000000 s total
PROFILER:   VanDerWaalsD3::energyAndGrad     0.033275 +/-     0.001118 s,   39 calls,      1.297713 s total
PROFILER:               WavefunctionDrag    27.468183 +/-     0.382345 s,   19 calls,    521.895471 s total
PROFILER:                            Y*M     0.648558 +/-     0.805712 s, 12219 calls,   7924.732891 s total
PROFILER:                          Y1^Y2     0.667585 +/-     0.822392 s, 9004 calls,   6010.931246 s total

MEMUSAGE:                   ColumnBundle     1.365987 GB
MEMUSAGE:        complexScalarFieldTilde     0.049438 GB
MEMUSAGE:                    IndexArrays     0.023178 GB
MEMUSAGE:                         matrix     0.020855 GB
MEMUSAGE:                           misc     0.051230 GB
MEMUSAGE:                    ScalarField     0.395508 GB
MEMUSAGE:               ScalarFieldTilde     0.262436 GB
MEMUSAGE:                          Total     1.683398 GB
