
*************** JDFTx 1.7.0 (git hash 5f12716a) ***************

Start date and time: Tue Mar 14 13:32:59 2023
Executable /home/nisi6161/jdftx_alpine/build/jdftx with command-line: -i in
Running on hosts (process indices):  c3cpu-a5-u13-4.rc.int.colorado.edu (0-17)
Divided in process groups (process indices):  0 (0)  1 (1)  2 (2)  3 (3)  4 (4)  5 (5)  6 (6)  7 (7)  8 (8)  9 (9)  10 (10)  11 (11)  12 (12)  13 (13)  14 (14)  15 (15)  16 (16)  17 (17)
Resource initialization completed at t[s]:      0.00
Run totals: 18 processes, 64 threads, 0 GPUs


Input parsed successfully to the following command list (including defaults):

basis kpoint-dependent
converge-empty-states yes
coords-type Cartesian
core-overlap-check none
coulomb-interaction Periodic
davidson-band-ratio 1.1
density-of-states Etol 1.000000e-06 Esigma 1.000000e-03 \
		Complete \
	Total \
	OrthoOrbital C 1   s \
	OrthoOrbital C 1   p \
	OrthoOrbital C 1   px \
	OrthoOrbital C 1   py \
	OrthoOrbital C 1   pz \
	OrthoOrbital C 2   s \
	OrthoOrbital C 2   p \
	OrthoOrbital C 2   px \
	OrthoOrbital C 2   py \
	OrthoOrbital C 2   pz \
	OrthoOrbital C 3   s \
	OrthoOrbital C 3   p \
	OrthoOrbital C 3   px \
	OrthoOrbital C 3   py \
	OrthoOrbital C 3   pz \
	OrthoOrbital C 4   s \
	OrthoOrbital C 4   p \
	OrthoOrbital C 4   px \
	OrthoOrbital C 4   py \
	OrthoOrbital C 4   pz \
	OrthoOrbital C 5   s \
	OrthoOrbital C 5   p \
	OrthoOrbital C 5   px \
	OrthoOrbital C 5   py \
	OrthoOrbital C 5   pz \
	OrthoOrbital C 6   s \
	OrthoOrbital C 6   p \
	OrthoOrbital C 6   px \
	OrthoOrbital C 6   py \
	OrthoOrbital C 6   pz \
	OrthoOrbital C 7   s \
	OrthoOrbital C 7   p \
	OrthoOrbital C 7   px \
	OrthoOrbital C 7   py \
	OrthoOrbital C 7   pz \
	OrthoOrbital C 8   s \
	OrthoOrbital C 8   p \
	OrthoOrbital C 8   px \
	OrthoOrbital C 8   py \
	OrthoOrbital C 8   pz \
	OrthoOrbital C 9   s \
	OrthoOrbital C 9   p \
	OrthoOrbital C 9   px \
	OrthoOrbital C 9   py \
	OrthoOrbital C 9   pz \
	OrthoOrbital C 10   s \
	OrthoOrbital C 10   p \
	OrthoOrbital C 10   px \
	OrthoOrbital C 10   py \
	OrthoOrbital C 10   pz \
	OrthoOrbital C 11   s \
	OrthoOrbital C 11   p \
	OrthoOrbital C 11   px \
	OrthoOrbital C 11   py \
	OrthoOrbital C 11   pz \
	OrthoOrbital C 12   s \
	OrthoOrbital C 12   p \
	OrthoOrbital C 12   px \
	OrthoOrbital C 12   py \
	OrthoOrbital C 12   pz \
	OrthoOrbital C 13   s \
	OrthoOrbital C 13   p \
	OrthoOrbital C 13   px \
	OrthoOrbital C 13   py \
	OrthoOrbital C 13   pz \
	OrthoOrbital C 14   s \
	OrthoOrbital C 14   p \
	OrthoOrbital C 14   px \
	OrthoOrbital C 14   py \
	OrthoOrbital C 14   pz \
	OrthoOrbital C 15   s \
	OrthoOrbital C 15   p \
	OrthoOrbital C 15   px \
	OrthoOrbital C 15   py \
	OrthoOrbital C 15   pz \
	OrthoOrbital C 16   s \
	OrthoOrbital C 16   p \
	OrthoOrbital C 16   px \
	OrthoOrbital C 16   py \
	OrthoOrbital C 16   pz \
	OrthoOrbital C 17   s \
	OrthoOrbital C 17   p \
	OrthoOrbital C 17   px \
	OrthoOrbital C 17   py \
	OrthoOrbital C 17   pz \
	OrthoOrbital C 18   s \
	OrthoOrbital C 18   p \
	OrthoOrbital C 18   px \
	OrthoOrbital C 18   py \
	OrthoOrbital C 18   pz \
	OrthoOrbital C 19   s \
	OrthoOrbital C 19   p \
	OrthoOrbital C 19   px \
	OrthoOrbital C 19   py \
	OrthoOrbital C 19   pz \
	OrthoOrbital C 20   s \
	OrthoOrbital C 20   p \
	OrthoOrbital C 20   px \
	OrthoOrbital C 20   py \
	OrthoOrbital C 20   pz \
	OrthoOrbital C 21   s \
	OrthoOrbital C 21   p \
	OrthoOrbital C 21   px \
	OrthoOrbital C 21   py \
	OrthoOrbital C 21   pz \
	OrthoOrbital C 22   s \
	OrthoOrbital C 22   p \
	OrthoOrbital C 22   px \
	OrthoOrbital C 22   py \
	OrthoOrbital C 22   pz \
	OrthoOrbital C 23   s \
	OrthoOrbital C 23   p \
	OrthoOrbital C 23   px \
	OrthoOrbital C 23   py \
	OrthoOrbital C 23   pz \
	OrthoOrbital C 24   s \
	OrthoOrbital C 24   p \
	OrthoOrbital C 24   px \
	OrthoOrbital C 24   py \
	OrthoOrbital C 24   pz \
	OrthoOrbital C 25   s \
	OrthoOrbital C 25   p \
	OrthoOrbital C 25   px \
	OrthoOrbital C 25   py \
	OrthoOrbital C 25   pz \
	OrthoOrbital C 26   s \
	OrthoOrbital C 26   p \
	OrthoOrbital C 26   px \
	OrthoOrbital C 26   py \
	OrthoOrbital C 26   pz \
	OrthoOrbital C 27   s \
	OrthoOrbital C 27   p \
	OrthoOrbital C 27   px \
	OrthoOrbital C 27   py \
	OrthoOrbital C 27   pz \
	OrthoOrbital C 28   s \
	OrthoOrbital C 28   p \
	OrthoOrbital C 28   px \
	OrthoOrbital C 28   py \
	OrthoOrbital C 28   pz \
	OrthoOrbital C 29   s \
	OrthoOrbital C 29   p \
	OrthoOrbital C 29   px \
	OrthoOrbital C 29   py \
	OrthoOrbital C 29   pz \
	OrthoOrbital C 30   s \
	OrthoOrbital C 30   p \
	OrthoOrbital C 30   px \
	OrthoOrbital C 30   py \
	OrthoOrbital C 30   pz \
	OrthoOrbital C 31   s \
	OrthoOrbital C 31   p \
	OrthoOrbital C 31   px \
	OrthoOrbital C 31   py \
	OrthoOrbital C 31   pz \
	OrthoOrbital C 32   s \
	OrthoOrbital C 32   p \
	OrthoOrbital C 32   px \
	OrthoOrbital C 32   py \
	OrthoOrbital C 32   pz \
	OrthoOrbital C 33   s \
	OrthoOrbital C 33   p \
	OrthoOrbital C 33   px \
	OrthoOrbital C 33   py \
	OrthoOrbital C 33   pz \
	OrthoOrbital C 34   s \
	OrthoOrbital C 34   p \
	OrthoOrbital C 34   px \
	OrthoOrbital C 34   py \
	OrthoOrbital C 34   pz \
	OrthoOrbital C 35   s \
	OrthoOrbital C 35   p \
	OrthoOrbital C 35   px \
	OrthoOrbital C 35   py \
	OrthoOrbital C 35   pz \
	OrthoOrbital C 36   s \
	OrthoOrbital C 36   p \
	OrthoOrbital C 36   px \
	OrthoOrbital C 36   py \
	OrthoOrbital C 36   pz \
	OrthoOrbital C 37   s \
	OrthoOrbital C 37   p \
	OrthoOrbital C 37   px \
	OrthoOrbital C 37   py \
	OrthoOrbital C 37   pz \
	OrthoOrbital C 38   s \
	OrthoOrbital C 38   p \
	OrthoOrbital C 38   px \
	OrthoOrbital C 38   py \
	OrthoOrbital C 38   pz \
	OrthoOrbital C 39   s \
	OrthoOrbital C 39   p \
	OrthoOrbital C 39   px \
	OrthoOrbital C 39   py \
	OrthoOrbital C 39   pz \
	OrthoOrbital C 40   s \
	OrthoOrbital C 40   p \
	OrthoOrbital C 40   px \
	OrthoOrbital C 40   py \
	OrthoOrbital C 40   pz \
	OrthoOrbital C 41   s \
	OrthoOrbital C 41   p \
	OrthoOrbital C 41   px \
	OrthoOrbital C 41   py \
	OrthoOrbital C 41   pz \
	OrthoOrbital C 42   s \
	OrthoOrbital C 42   p \
	OrthoOrbital C 42   px \
	OrthoOrbital C 42   py \
	OrthoOrbital C 42   pz \
	OrthoOrbital C 43   s \
	OrthoOrbital C 43   p \
	OrthoOrbital C 43   px \
	OrthoOrbital C 43   py \
	OrthoOrbital C 43   pz \
	OrthoOrbital C 44   s \
	OrthoOrbital C 44   p \
	OrthoOrbital C 44   px \
	OrthoOrbital C 44   py \
	OrthoOrbital C 44   pz \
	OrthoOrbital C 45   s \
	OrthoOrbital C 45   p \
	OrthoOrbital C 45   px \
	OrthoOrbital C 45   py \
	OrthoOrbital C 45   pz \
	OrthoOrbital N 1   s \
	OrthoOrbital N 1   p \
	OrthoOrbital N 1   px \
	OrthoOrbital N 1   py \
	OrthoOrbital N 1   pz \
	OrthoOrbital N 2   s \
	OrthoOrbital N 2   p \
	OrthoOrbital N 2   px \
	OrthoOrbital N 2   py \
	OrthoOrbital N 2   pz \
	OrthoOrbital N 3   s \
	OrthoOrbital N 3   p \
	OrthoOrbital N 3   px \
	OrthoOrbital N 3   py \
	OrthoOrbital N 3   pz \
	OrthoOrbital N 4   s \
	OrthoOrbital N 4   p \
	OrthoOrbital N 4   px \
	OrthoOrbital N 4   py \
	OrthoOrbital N 4   pz \
	OrthoOrbital Ti 1   s \
	OrthoOrbital Ti 1   p \
	OrthoOrbital Ti 1   px \
	OrthoOrbital Ti 1   py \
	OrthoOrbital Ti 1   pz \
	OrthoOrbital Ti 1   d \
	OrthoOrbital Ti 1   dxy \
	OrthoOrbital Ti 1   dyz \
	OrthoOrbital Ti 1   dz2 \
	OrthoOrbital Ti 1   dxz \
	OrthoOrbital Ti 1   dx2-y2 \
	OrthoOrbital O 1   s \
	OrthoOrbital O 1   p \
	OrthoOrbital O 1   px \
	OrthoOrbital O 1   py \
	OrthoOrbital O 1   pz
dump End ElecDensity KEdensity BandEigs EigStats RhoAtom DOS Kpoints
dump Ionic State IonicPositions Lattice EigStats Ecomponents
dump 
dump 
dump 
dump 
dump 
dump 
dump 
dump 
dump-name jdft.$VAR
elec-cutoff 20
elec-eigen-algo Davidson
elec-ex-corr gga-PBE
elec-initial-magnetization 0.000000 no
elec-n-bands 131
elec-smearing Fermi 0.001
electronic-minimize  \
	dirUpdateScheme      FletcherReeves \
	linminMethod         DirUpdateRecommended \
	nIterations          100 \
	history              15 \
	knormThreshold       0 \
	energyDiffThreshold  1e-07 \
	nEnergyDiff          2 \
	alphaTstart          1 \
	alphaTmin            1e-10 \
	updateTestStepSize   yes \
	alphaTreduceFactor   0.1 \
	alphaTincreaseFactor 3 \
	nAlphaAdjustMax      3 \
	wolfeEnergy          0.0001 \
	wolfeGradient        0.9 \
	fdTest               no
exchange-regularization WignerSeitzTruncated
fluid LinearPCM 298.000000 1.013250
fluid-anion F- 0.5 MeanFieldLJ \
	epsBulk 1 \
	pMol 0 \
	epsInf 1 \
	Pvap 0 \
	sigmaBulk 0 \
	Rvdw 2.24877 \
	Res 0 \
	tauNuc 343133
fluid-cation Na+ 0.5 MeanFieldLJ \
	epsBulk 1 \
	pMol 0 \
	epsInf 1 \
	Pvap 0 \
	sigmaBulk 0 \
	Rvdw 2.19208 \
	Res 0 \
	tauNuc 343133
fluid-ex-corr lda-TF lda-PZ
fluid-gummel-loop 10 1.000000e-05
fluid-minimize  \
	dirUpdateScheme      PolakRibiere \
	linminMethod         DirUpdateRecommended \
	nIterations          400 \
	history              15 \
	knormThreshold       1e-11 \
	energyDiffThreshold  0 \
	nEnergyDiff          2 \
	alphaTstart          1 \
	alphaTmin            1e-10 \
	updateTestStepSize   yes \
	alphaTreduceFactor   0.1 \
	alphaTincreaseFactor 3 \
	nAlphaAdjustMax      6 \
	wolfeEnergy          0.0001 \
	wolfeGradient        0.9 \
	fdTest               no
fluid-solvent H2O 55.338 ScalarEOS \
	epsBulk 78.4 \
	pMol 0.92466 \
	epsInf 1.77 \
	Pvap 1.06736e-10 \
	sigmaBulk 4.62e-05 \
	Rvdw 2.61727 \
	Res 1.42 \
	tauNuc 343133 \
	poleEl 15 7 1
forces-output-coords Positions
ion C   0.070100000000000   0.134789000000000  43.284200000000013 1
ion C  21.112342000000002   4.087818000000001  43.262556000000004 1
ion C  18.767339000000000   8.088962000000002  43.126584000000008 1
ion C  -6.978957000000000  12.091066000000000  43.109755000000007 1
ion C  -9.303451000000001  16.105857000000004  43.205832000000008 1
ion C   4.752070000000000   0.233231000000000   0.075368000000000 1
ion C   2.361000000000001   4.259973000000000   0.202728000000000 1
ion C  -0.053220000000000   8.073282000000003   0.139565000000000 1
ion C  -2.364056000000001  12.077831000000000  43.231668000000006 1
ion C  -4.655040000000001  16.107151000000002  43.236777000000004 1
ion C   9.445013000000001   0.120510000000000  43.279884000000010 1
ion C   7.152951000000000   4.224571000000000   0.154815000000000 1
ion C   0.042865000000001  15.999962000000002   0.081365000000000 1
ion C   2.412789999999998  19.970099000000008  43.287748000000001 1
ion C  11.825090000000001   4.074186000000000  43.235178000000005 1
ion C   9.529936000000001   8.066629000000002   0.055940000000000 1
ion C   4.738422999999999  15.870022000000004   0.160441000000000 1
ion C   7.063594000000002  19.978356999999999  43.275639000000005 1
ion C  16.467637000000000   4.059332000000001  43.184341000000011 1
ion C  14.156316000000000   8.083506000000002  43.114897000000006 1
ion C  11.841988999999998  12.088307000000002  43.167647000000009 1
ion C   9.444915000000000  16.029749000000002  -0.004919000000000 1
ion C   0.057026000000000   2.822223000000000   0.070211000000000 1
ion C  -2.353290000000000   6.740303000000002  43.228932000000007 1
ion C  -4.673586000000001  10.741102000000001  43.123967000000007 1
ion C  -6.979236000000000  14.767020000000002  43.176205000000010 1
ion C  -9.305935000000002  18.793316000000004  43.280140000000010 1
ion C   4.749373000000001   2.952209000000000   0.179156000000000 1
ion C  -0.061128000000000  10.753753000000000   0.165215000000000 1
ion C  -2.334593000000002  14.747680000000004  43.271447000000009 1
ion C  -4.654189000000001  18.792616000000002  43.287390000000009 1
ion C   9.456440000000001   2.801724000000001   0.029580000000000 1
ion C   2.346637999999999  14.559713000000002   0.228322000000000 1
ion C   0.055394000000000  18.684460000000001  43.291372000000003 1
ion C  14.145689000000001   2.715880000000000  43.225709000000009 1
ion C  11.846804000000001   6.745881000000001  43.201654000000005 1
ion C   9.527739999999998  10.766360000000002   0.017439000000000 1
ion C   7.141645000000000  14.597035000000002   0.096762000000000 1
ion C   4.738000999999997  18.589581000000003   0.066521000000000 1
ion C  18.794758999999999   2.723483000000000  43.232368000000008 1
ion C  16.463659000000000   6.734289000000001  43.116450000000007 1
ion C  14.153921000000004  10.755756000000002  43.107046000000004 1
ion C  11.813143999999996  14.761788000000005  43.195364000000005 1
ion C   9.430783000000000  18.711845000000007  43.264944000000007 1
ion C   3.520154999999999   7.482983000000002   5.046843000000001 1
ion N   2.216728999999999  11.961081000000004   0.445371000000000 1
ion N   7.251443000000002  12.006242000000002   0.163022000000000 1
ion N   2.245089999999999   6.873511000000001   0.385483000000000 1
ion N   7.258503000000001   6.814620000000001   0.285129000000000 1
ion Ti   4.891445000000001   9.410652000000002   1.830156000000000 1
ion O   2.633784000000001   6.310397000000001   6.666245000000001 1
ion-species /projects/musgravc/apps/jdftx-1.6.0/build/pseudopotentials/GBRV_v1.5/$ID_pbe_v1.uspp
ion-species /projects/musgravc/apps/jdftx-1.6.0/build/pseudopotentials/GBRV_v1.5/$ID_pbe_v1.2.uspp
ion-species /projects/musgravc/apps/jdftx-1.6.0/build/pseudopotentials/GBRV_v1.5/$ID_pbe_v1.4.uspp
ion-species /projects/musgravc/apps/jdftx-1.6.0/build/pseudopotentials/GBRV_v1.5/$ID_pbe_v1.5.uspp
ion-width Ecut
ionic-minimize  \
	dirUpdateScheme      L-BFGS \
	linminMethod         DirUpdateRecommended \
	nIterations          0 \
	history              15 \
	knormThreshold       0.0001 \
	energyDiffThreshold  1e-06 \
	nEnergyDiff          2 \
	alphaTstart          1 \
	alphaTmin            1e-10 \
	updateTestStepSize   yes \
	alphaTreduceFactor   0.1 \
	alphaTincreaseFactor 3 \
	nAlphaAdjustMax      3 \
	wolfeEnergy          0.0001 \
	wolfeGradient        0.9 \
	fdTest               no
kpoint   0.000000000000   0.000000000000   0.000000000000  1.00000000000000
kpoint-folding 3 3 1 
latt-move-scale 0 0 0
latt-scale 1 1 1 
lattice  \
	  23.436261999999999  -11.733459000000000    0.000000000000000  \
	   0.017994000000000   19.941849000000001    0.000000000000000  \
	   0.000000000000000    0.000000000000000   43.256312999999999 
lattice-minimize  \
	dirUpdateScheme      L-BFGS \
	linminMethod         DirUpdateRecommended \
	nIterations          0 \
	history              15 \
	knormThreshold       0 \
	energyDiffThreshold  1e-06 \
	nEnergyDiff          2 \
	alphaTstart          1 \
	alphaTmin            1e-10 \
	updateTestStepSize   yes \
	alphaTreduceFactor   0.1 \
	alphaTincreaseFactor 3 \
	nAlphaAdjustMax      3 \
	wolfeEnergy          0.0001 \
	wolfeGradient        0.9 \
	fdTest               no
lcao-params 30 1e-06 0.001
pcm-variant CANDLE
spintype z-spin
subspace-rotation-factor 1 yes
symmetries none
symmetry-threshold 0.0001
target-mu -0.1455 no

van-der-waals D3


Applied RMS atom displacement 0 bohrs to make symmetries exact.

---------- Initializing the Grid ----------
R = 
[      23.4363     -11.7335            0  ]
[     0.017994      19.9418            0  ]
[            0            0      43.2563  ]
unit cell volume = 20225.5
G =
[   0.267976   0.157673         -0  ]
[ -0.000241801   0.314933          0  ]
[          0         -0   0.145255  ]
Minimum fftbox size, Smin = [  96  96  176  ]
Chosen fftbox size, S = [  96  96  180  ]

---------- Exchange Correlation functional ----------
Initalized PBE GGA exchange.
Initalized PBE GGA correlation.

---------- Setting up pseudopotentials ----------
Width of ionic core gaussian charges (only for fluid interactions / plotting) set to 0.397384

Reading pseudopotential file '/projects/musgravc/apps/jdftx-1.6.0/build/pseudopotentials/GBRV_v1.5/c_pbe_v1.2.uspp':
  Title: C.  Created by USPP 7.3.6 on 3-2-2014
  Reference state energy: -5.406344.  4 valence electrons in orbitals:
    |200>  occupation: 2  eigenvalue: -0.504890
    |210>  occupation: 2  eigenvalue: -0.194356
  lMax: 1  lLocal: 2  QijEcut: 5
  4 projectors sampled on a log grid with 503 points:
    l: 0  eig: -0.504890  rCut: 1.3
    l: 0  eig: 0.000000  rCut: 1.3
    l: 1  eig: -0.194357  rCut: 1.3
    l: 1  eig: 0.000000  rCut: 1.3
  Partial core density with radius 1.1
  Transforming core density to a uniform radial grid of dG=0.02 with 1464 points.
  Transforming local potential to a uniform radial grid of dG=0.02 with 1464 points.
  Transforming nonlocal projectors to a uniform radial grid of dG=0.02 with 432 points.
  Transforming density augmentations to a uniform radial grid of dG=0.02 with 1464 points.
  Transforming atomic orbitals to a uniform radial grid of dG=0.02 with 432 points.
  Core radius for overlap checks: 1.30 bohrs.

Reading pseudopotential file '/projects/musgravc/apps/jdftx-1.6.0/build/pseudopotentials/GBRV_v1.5/n_pbe_v1.2.uspp':
  Title: N.  Created by USPP 7.3.6 on 3-2-2014
  Reference state energy: -9.763716.  5 valence electrons in orbitals:
    |200>  occupation: 2  eigenvalue: -0.681964
    |210>  occupation: 3  eigenvalue: -0.260726
  lMax: 1  lLocal: 2  QijEcut: 6
  4 projectors sampled on a log grid with 491 points:
    l: 0  eig: -0.681964  rCut: 1.15
    l: 0  eig: 0.000000  rCut: 1.15
    l: 1  eig: -0.260729  rCut: 1.2
    l: 1  eig: 0.500000  rCut: 1.2
  Partial core density with radius 0.8
  Transforming core density to a uniform radial grid of dG=0.02 with 1464 points.
  Transforming local potential to a uniform radial grid of dG=0.02 with 1464 points.
  Transforming nonlocal projectors to a uniform radial grid of dG=0.02 with 432 points.
  Transforming density augmentations to a uniform radial grid of dG=0.02 with 1464 points.
  Transforming atomic orbitals to a uniform radial grid of dG=0.02 with 432 points.
  Core radius for overlap checks: 1.20 bohrs.

Reading pseudopotential file '/projects/musgravc/apps/jdftx-1.6.0/build/pseudopotentials/GBRV_v1.5/ti_pbe_v1.4.uspp':
  Title: Ti.  Created by USPP 7.3.6 on 31-3-15
  Reference state energy: -59.020943.  12 valence electrons in orbitals:
    |300>  occupation: 2  eigenvalue: -2.777623
    |310>  occupation: 6  eigenvalue: -1.894596
    |400>  occupation: 2  eigenvalue: -0.438610
    |320>  occupation: 1  eigenvalue: -0.583119
  lMax: 2  lLocal: 3  QijEcut: 6
  6 projectors sampled on a log grid with 597 points:
    l: 0  eig: -2.777624  rCut: 1.8
    l: 0  eig: -0.438611  rCut: 1.8
    l: 1  eig: -1.894596  rCut: 1.8
    l: 1  eig: 0.500000  rCut: 1.8
    l: 2  eig: -0.583118  rCut: 1.8
    l: 2  eig: 0.150000  rCut: 1.8
  Partial core density with radius 0.8
  Transforming core density to a uniform radial grid of dG=0.02 with 1464 points.
  Transforming local potential to a uniform radial grid of dG=0.02 with 1464 points.
  Transforming nonlocal projectors to a uniform radial grid of dG=0.02 with 432 points.
  Transforming density augmentations to a uniform radial grid of dG=0.02 with 1464 points.
  Transforming atomic orbitals to a uniform radial grid of dG=0.02 with 432 points.
  Core radius for overlap checks: 1.80 bohrs.

Reading pseudopotential file '/projects/musgravc/apps/jdftx-1.6.0/build/pseudopotentials/GBRV_v1.5/o_pbe_v1.2.uspp':
  Title: O.  Created by USPP 7.3.6 on 3-2-2014
  Reference state energy: -15.894388.  6 valence electrons in orbitals:
    |200>  occupation: 2  eigenvalue: -0.878823
    |210>  occupation: 4  eigenvalue: -0.332131
  lMax: 2  lLocal: 2  QijEcut: 6
  5 projectors sampled on a log grid with 511 points:
    l: 0  eig: -0.878823  rCut: 1.25
    l: 0  eig: 0.000000  rCut: 1.25
    l: 1  eig: -0.332132  rCut: 1.25
    l: 1  eig: 0.000000  rCut: 1.25
    l: 2  eig: 1.000000  rCut: 1.25
  Partial core density with radius 0.7
  Transforming core density to a uniform radial grid of dG=0.02 with 1464 points.
  Transforming local potential to a uniform radial grid of dG=0.02 with 1464 points.
  Transforming nonlocal projectors to a uniform radial grid of dG=0.02 with 432 points.
  Transforming density augmentations to a uniform radial grid of dG=0.02 with 1464 points.
  Transforming atomic orbitals to a uniform radial grid of dG=0.02 with 432 points.
  Core radius for overlap checks: 1.25 bohrs.

Initialized 4 species with 51 total atoms.

Folded 1 k-points by 3x3x1 to 9 k-points.

---------- Setting up k-points, bands, fillings ----------
No reducable k-points. 
Computing the number of bands and number of electrons
Calculating initial fillings.
nElectrons: 218.000000   nBands: 131   nStates: 18

----- Setting up reduced wavefunction bases (one per k-point) -----
average nbasis = 86412.556 , ideal nbasis = 86404.907

----- Initializing Supercell corresponding to k-point mesh -----
Lattice vector linear combinations in supercell:
[   3   0   0  ]
[   0   3   0  ]
[   0   0   1  ]
Supercell lattice vectors:
[  70.3088  -35.2004  0  ]
[  0.053982  59.8255  0  ]
[  0  0  43.2563  ]

Initializing DFT-D3 calculator:
	Parameters set for gga-PBE functional
	s6:  1.000  s_r6:  1.217
	s8:  0.722  s_r8:  1.000
	Per-atom parameters loaded for:
	 C:  sqrtQ[a0]:  3.105  Rcov[a0]:  1.417  CN: [ 0.00 0.99 2.00 3.00 3.98 ]
	 N:  sqrtQ[a0]:  2.712  Rcov[a0]:  1.342  CN: [ 0.00 0.99 2.01 2.99 ]
	Ti:  sqrtQ[a0]:  6.288  Rcov[a0]:  2.305  CN: [ 0.00 1.83 3.87 ]
	 O:  sqrtQ[a0]:  2.594  Rcov[a0]:  1.191  CN: [ 0.00 0.99 1.99 ]

Initializing DFT-D2 calculator for fluid / solvation:
	 C:  C6:   30.35 Eh-a0^6  R0: 2.744 a0
	 N:  C6:   21.33 Eh-a0^6  R0: 2.640 a0
	Ti:  C6:  187.33 Eh-a0^6  R0: 2.952 a0
	 O:  C6:   12.14 Eh-a0^6  R0: 2.536 a0

---------- Setting up ewald sum ----------
Optimum gaussian width for ewald sums = 5.644362 bohr.
Real space sum over 567 unit cells with max indices [  4  4  3  ]
Reciprocal space sum over 7803 terms with max indices [  8  8  13  ]

Computing DFT-D3 correction:
# coordination-number C 3.299 3.321 3.333 3.330 3.312 3.289 3.317 3.518 3.329 3.313 3.302 3.330 3.301 3.299 3.322 3.650 3.264 3.300 3.318 3.331 3.326 3.303 3.300 3.327 3.333 3.318 3.299 3.266 3.518 3.323 3.301 3.304 3.315 3.300 3.312 3.325 3.640 3.327 3.288 3.312 3.330 3.331 3.322 3.300 2.013
# coordination-number N 3.169 3.176 3.186 3.181
# coordination-number Ti 6.407
# coordination-number O 1.023
# diagonal-C6 C 24.29 24.07 23.94 23.97 24.17 24.38 24.11 21.38 23.99 24.16 24.27 23.97 24.27 24.29 24.06 19.73 24.60 24.28 24.10 23.96 24.02 24.25 24.29 24.01 23.94 24.10 24.29 24.58 21.37 24.05 24.28 24.25 24.13 24.29 24.17 24.03 19.83 24.01 24.39 24.17 23.98 23.96 24.06 24.28 29.46
# diagonal-C6 N 15.60 15.60 15.60 15.60
# diagonal-C6 Ti 321.59
# diagonal-C6 O 12.79
EvdW_6 =   -0.038687
EvdW_8 =   -0.031470

---------- Allocating electronic variables ----------
Initializing wave functions:  linear combination of atomic orbitals
C pseudo-atom occupations:   s ( 2 )  p ( 2 )
N pseudo-atom occupations:   s ( 2 )  p ( 3 )
Ti pseudo-atom occupations:   s ( 2 0 )  p ( 6 )  d ( 4 )
O pseudo-atom occupations:   s ( 2 )  p ( 4 )
	FillingsUpdate:  mu: -0.145500000  nElectrons: 218.000000  magneticMoment: [ Abs: 0.00433  Tot: +0.00001 ]
LCAOMinimize: Iter:   0  G: -334.8488449019620248  |grad|_K:  3.161e-03  alpha:  1.000e+00
	FillingsUpdate:  mu: -0.145500000  nElectrons: 218.000000  magneticMoment: [ Abs: 0.00427  Tot: -0.00000 ]
LCAOMinimize: Iter:   1  G: -335.2605876934787261  |grad|_K:  1.876e-03  alpha:  7.887e-02  linmin: -1.304e-01  cgtest:  1.318e+00  t[s]:    396.33
LCAOMinimize: Encountered beta<0, resetting CG.
LCAOMinimize: 	Predicted alpha/alphaT>3.000000, increasing alphaT to 2.365970e-01.
LCAOMinimize: 	Step increased G by 4.920438e+00, reducing alpha to 5.243228e-02.
	FillingsUpdate:  mu: -0.145500000  nElectrons: 218.000000  magneticMoment: [ Abs: 0.00426  Tot: -0.00000 ]
LCAOMinimize: Iter:   2  G: -335.3935155685961718  |grad|_K:  1.586e-03  alpha:  5.243e-02  linmin: -1.220e-01  cgtest:  1.029e+00  t[s]:    715.75
LCAOMinimize: Encountered beta<0, resetting CG.
LCAOMinimize: 	Predicted alpha/alphaT>3.000000, increasing alphaT to 1.572968e-01.
LCAOMinimize: 	Predicted alpha/alphaT>3.000000, increasing alphaT to 4.718905e-01.
	FillingsUpdate:  mu: -0.145500000  nElectrons: 218.000000  magneticMoment: [ Abs: 0.00425  Tot: -0.00000 ]
LCAOMinimize: Iter:   3  G: -335.6915753643928610  |grad|_K:  1.360e-03  alpha:  1.606e-01  linmin: -7.759e-02  cgtest:  7.440e-01  t[s]:    955.65
	FillingsUpdate:  mu: -0.145500000  nElectrons: 218.000000  magneticMoment: [ Abs: 0.00427  Tot: -0.00006 ]
LCAOMinimize: Iter:   4  G: -335.8143867680263384  |grad|_K:  1.444e-03  alpha:  5.795e-02  linmin: -6.725e-02  cgtest:  7.512e-01  t[s]:   1110.63
	FillingsUpdate:  mu: -0.145500000  nElectrons: 218.000000  magneticMoment: [ Abs: 0.00437  Tot: -0.00020 ]
LCAOMinimize: Iter:   5  G: -335.8776250859587549  |grad|_K:  1.483e-03  alpha:  3.225e-02  linmin: -6.317e-03  cgtest:  4.156e-01  t[s]:   1265.64
LCAOMinimize: 	Predicted alpha/alphaT>3.000000, increasing alphaT to 9.676096e-02.
LCAOMinimize: 	Predicted alpha/alphaT>3.000000, increasing alphaT to 2.902829e-01.
	FillingsUpdate:  mu: -0.145500000  nElectrons: 218.000000  magneticMoment: [ Abs: 0.00438  Tot: -0.00023 ]
LCAOMinimize: Iter:   6  G: -335.8889387313644761  |grad|_K:  1.567e-03  alpha:  5.708e-03  linmin: -2.303e-02  cgtest:  9.834e-01  t[s]:   1505.88
LCAOMinimize: 	Predicted alpha/alphaT>3.000000, increasing alphaT to 1.712478e-02.
LCAOMinimize: 	Predicted alpha/alphaT>3.000000, increasing alphaT to 5.137435e-02.
	FillingsUpdate:  mu: -0.145500000  nElectrons: 218.000000  magneticMoment: [ Abs: 0.00432  Tot: -0.00009 ]
LCAOMinimize: Iter:   7  G: -336.0508494607649936  |grad|_K:  1.569e-03  alpha:  1.053e-01  linmin: -4.375e-02  cgtest: -1.491e-02  t[s]:   1745.85
	FillingsUpdate:  mu: -0.145500000  nElectrons: 218.000000  magneticMoment: [ Abs: 0.00454  Tot: -0.00043 ]
LCAOMinimize: Iter:   8  G: -336.3820921905918908  |grad|_K:  1.562e-03  alpha:  8.265e-02  linmin: -1.431e-02  cgtest: -6.113e-01  t[s]:   1904.91
	FillingsUpdate:  mu: -0.145500000  nElectrons: 218.000000  magneticMoment: [ Abs: 0.00454  Tot: -0.00044 ]
LCAOMinimize: Iter:   9  G: -336.3851316569619598  |grad|_K:  1.509e-03  alpha:  9.324e-04  linmin: -2.232e-02  cgtest:  1.026e+00  t[s]:   2063.67
LCAOMinimize: Encountered beta<0, resetting CG.
LCAOMinimize: 	Predicted alpha/alphaT>3.000000, increasing alphaT to 2.797052e-03.
LCAOMinimize: 	Predicted alpha/alphaT>3.000000, increasing alphaT to 8.391155e-03.
LCAOMinimize: 	Predicted alpha/alphaT>3.000000, increasing alphaT to 2.517346e-02.
LCAOMinimize: 	Step increased G by 1.049608e-01, reducing alpha to 4.220636e-02.
	FillingsUpdate:  mu: -0.145500000  nElectrons: 218.000000  magneticMoment: [ Abs: 0.00451  Tot: -0.00030 ]
LCAOMinimize: Iter:  10  G: -336.4558542905876379  |grad|_K:  7.480e-04  alpha:  4.221e-02  linmin: -5.758e-02  cgtest:  8.449e-01  t[s]:   2416.48
LCAOMinimize: Encountered beta<0, resetting CG.
	FillingsUpdate:  mu: -0.145500000  nElectrons: 218.000000  magneticMoment: [ Abs: 0.00455  Tot: -0.00030 ]
LCAOMinimize: Iter:  11  G: -336.4718857954471787  |grad|_K:  4.390e-04  alpha:  6.543e-02  linmin: -4.205e-02  cgtest:  3.760e-01  t[s]:   2572.24
	FillingsUpdate:  mu: -0.145500000  nElectrons: 218.000000  magneticMoment: [ Abs: 0.00466  Tot: -0.00043 ]
LCAOMinimize: Iter:  12  G: -336.4789244864169291  |grad|_K:  3.973e-04  alpha:  9.455e-02  linmin:  2.667e-02  cgtest: -2.792e-01  t[s]:   2727.86
	FillingsUpdate:  mu: -0.145500000  nElectrons: 218.000000  magneticMoment: [ Abs: 0.00479  Tot: -0.00055 ]
LCAOMinimize: Iter:  13  G: -336.4810921374901227  |grad|_K:  4.076e-04  alpha:  5.064e-02  linmin:  9.466e-05  cgtest:  9.003e-01  t[s]:   2883.58
	FillingsUpdate:  mu: -0.145500000  nElectrons: 218.000000  magneticMoment: [ Abs: 0.00483  Tot: -0.00056 ]
LCAOMinimize: Iter:  14  G: -336.4837615492903637  |grad|_K:  8.681e-05  alpha:  4.053e-02  linmin: -5.954e-04  cgtest: -5.980e-02  t[s]:   3039.26
LCAOMinimize: 	Predicted alpha/alphaT>3.000000, increasing alphaT to 1.215983e-01.
	FillingsUpdate:  mu: -0.145500000  nElectrons: 218.000000  magneticMoment: [ Abs: 0.00525  Tot: -0.00091 ]
LCAOMinimize: Iter:  15  G: -336.4844901155873913  |grad|_K:  4.964e-05  alpha:  2.208e-01  linmin: -7.822e-02  cgtest:  3.368e-01  t[s]:   3237.34
	FillingsUpdate:  mu: -0.145500000  nElectrons: 218.000000  magneticMoment: [ Abs: 0.00618  Tot: -0.00168 ]
LCAOMinimize: Iter:  16  G: -336.4848404794457224  |grad|_K:  3.612e-05  alpha:  3.021e-01  linmin: -3.832e-02  cgtest:  3.395e-01  t[s]:   3392.70
	FillingsUpdate:  mu: -0.145500000  nElectrons: 218.000000  magneticMoment: [ Abs: 0.00676  Tot: -0.00214 ]
LCAOMinimize: Iter:  17  G: -336.4848925641643405  |grad|_K:  4.072e-05  alpha:  1.025e-01  linmin: -2.647e-03  cgtest: -1.331e-01  t[s]:   3549.95
	FillingsUpdate:  mu: -0.145500000  nElectrons: 218.000000  magneticMoment: [ Abs: 0.00840  Tot: -0.00342 ]
LCAOMinimize: Iter:  18  G: -336.4849665064697319  |grad|_K:  2.594e-05  alpha:  1.036e-01  linmin: -2.417e-02  cgtest:  9.044e-01  t[s]:   3705.38
LCAOMinimize: Encountered beta<0, resetting CG.
	FillingsUpdate:  mu: -0.145500000  nElectrons: 218.000000  magneticMoment: [ Abs: 0.00891  Tot: -0.00383 ]
LCAOMinimize: Iter:  19  G: -336.4849768459055781  |grad|_K:  1.130e-05  alpha:  4.368e-02  linmin: -3.433e-02  cgtest:  2.025e-01  t[s]:   3865.44
	FillingsUpdate:  mu: -0.145500000  nElectrons: 218.000000  magneticMoment: [ Abs: 0.00964  Tot: -0.00439 ]
LCAOMinimize: Iter:  20  G: -336.4849802229408624  |grad|_K:  9.877e-06  alpha:  5.398e-02  linmin: -1.394e-01  cgtest:  9.875e-01  t[s]:   4024.08
LCAOMinimize: Encountered beta<0, resetting CG.
	FillingsUpdate:  mu: -0.145500000  nElectrons: 218.000000  magneticMoment: [ Abs: 0.01047  Tot: -0.00502 ]
LCAOMinimize: Iter:  21  G: -336.4849827009182377  |grad|_K:  8.937e-06  alpha:  5.906e-02  linmin: -1.931e-01  cgtest:  9.415e-01  t[s]:   4182.64
LCAOMinimize: Encountered beta<0, resetting CG.
	FillingsUpdate:  mu: -0.145500000  nElectrons: 218.000000  magneticMoment: [ Abs: 0.01139  Tot: -0.00571 ]
LCAOMinimize: Iter:  22  G: -336.4849843956423001  |grad|_K:  8.293e-06  alpha:  5.586e-02  linmin: -1.771e-01  cgtest:  9.809e-01  t[s]:   4341.03
LCAOMinimize: Encountered beta<0, resetting CG.
	FillingsUpdate:  mu: -0.145500000  nElectrons: 218.000000  magneticMoment: [ Abs: 0.01238  Tot: -0.00645 ]
LCAOMinimize: Iter:  23  G: -336.4849857466771255  |grad|_K:  7.812e-06  alpha:  5.233e-02  linmin: -1.701e-01  cgtest:  9.950e-01  t[s]:   4496.82
LCAOMinimize: Encountered beta<0, resetting CG.
	FillingsUpdate:  mu: -0.145500000  nElectrons: 218.000000  magneticMoment: [ Abs: 0.01336  Tot: -0.00718 ]
LCAOMinimize: Iter:  24  G: -336.4849867221490740  |grad|_K:  7.452e-06  alpha:  4.596e-02  linmin: -1.537e-01  cgtest:  9.985e-01  t[s]:   4655.33
LCAOMinimize: Encountered beta<0, resetting CG.
	FillingsUpdate:  mu: -0.145500000  nElectrons: 218.000000  magneticMoment: [ Abs: 0.01430  Tot: -0.00788 ]
LCAOMinimize: Iter:  25  G: -336.4849874586112151  |grad|_K:  7.183e-06  alpha:  3.941e-02  linmin: -1.399e-01  cgtest:  9.991e-01  t[s]:   4814.37
LCAOMinimize: Encountered beta<0, resetting CG.
LCAOMinimize: Converged (|Delta G|<1.000000e-06 for 2 iters).
----- createFluidSolver() ----- (Fluid-side solver setup)
   Initializing fluid molecule 'H2O'
     Initializing site 'O'
       Electron density: proportional to exp(-r/0.36935)*erfc((r-0.51523)/0.36823) with norm 6.826
       Charge density: gaussian nuclear width 0.478731 with net site charge 0.826
       Polarizability: cuspless exponential with width 0.32 and norm 3.73
       Hard sphere radius: 2.57003 bohrs
       Positions in reference frame:
         [ +0.000000 +0.000000 +0.000000 ]
     Initializing site 'H'
       Electron density: proportional to exp(-r/0.34641)*erfc((r-0)/0.390882) with norm 0.587
       Charge density: gaussian nuclear width 0.377945 with net site charge -0.413
       Polarizability: cuspless exponential with width 0.39 and norm 3.3
       Positions in reference frame:
         [ +0.000000 -1.441945 +1.122523 ]
         [ +0.000000 +1.441945 +1.122523 ]
     Net charge: 0   dipole magnitude: 0.927204
     Initializing spherical shell mfKernel with radius 2.61727 Bohr
     deltaS corrections:
       site 'O': -7.54299
       site 'H': -6.83917
   Initializing fluid molecule 'Na+'
     Initializing site 'Na'
       Electron density: proportional to exp(-r/0.19682)*erfc((r-0.71491)/0.41314) with norm 8.1383
       Charge density: gaussian nuclear width 0.365347 with net site charge -1
       Hard sphere radius: 1.86327 bohrs
       Positions in reference frame:
         [ +0.000000 +0.000000 +0.000000 ]
     Net charge: -1   dipole magnitude: 0
     Initializing gaussian mfKernel with width: 1.55004 Bohr
     deltaS corrections:
       site 'Na': -22.3555
   Initializing fluid molecule 'F-'
     Initializing site 'F'
       Electron density: proportional to exp(-r/0.38886)*erfc((r-0)/0.438782) with norm 8
       Charge density: gaussian nuclear width 0.374796 with net site charge 1
       Hard sphere radius: 2.39995 bohrs
       Positions in reference frame:
         [ +0.000000 +0.000000 +0.000000 ]
     Net charge: 1   dipole magnitude: 0
     Initializing gaussian mfKernel with width: 1.59012 Bohr
     deltaS corrections:
       site 'F': -9.04335

Correction to mu due to finite nuclear width = -0.0106944
   Cavity determined by nc: 0.00142 and sigma: 0.707107
   Nonlocal vdW cavity from gaussian model electron density with norm = 8 and sigma = 0.993594 bohr
   Charge asymmetry in cavity with sensitivity pCavity = 36.5 e-bohr/Eh
   Electrostatic cavity expanded by eta = 1.46 bohrs
   Weighted density cavitation model constrained by Nbulk: 0.0049383 bohr^-3, Pvap: 3.14029 kPa, Rvdw: 2.61727 bohr and sigmaBulk: 4.62e-05 Eh/bohr^2 at T: 298 K.
   Weighted density dispersion model using vdW pair potentials with single solvent site with sqrtC6eff: 0.77 SI.


---- Citations for features of the code used in this run ----

   Software package:
      R. Sundararaman, K. Letchworth-Weaver, K.A. Schwarz, D. Gunceler, Y. Ozhabes and T.A. Arias, 'JDFTx: software for joint density-functional theory', SoftwareX 6, 278 (2017)

   gga-PBE exchange-correlation functional:
      J.P. Perdew, K. Burke and M. Ernzerhof, Phys. Rev. Lett. 77, 3865 (1996)

   Pseudopotentials:
      KF Garrity, JW Bennett, KM Rabe and D Vanderbilt, Comput. Mater. Sci. 81, 446 (2014)

   DFT-D3 dispersion correction:
      S. Grimme, J. Antony, S. Ehrlich and H. Krieg, J. Chem. Phys. 132, 154104 (2010)

   DFT-D2 dispersion correction:
      S. Grimme, J. Comput. Chem. 27, 1787 (2006)

   Charge-asymmetric nonlocally-determined local-electric (CANDLE) solvation model:
      R. Sundararaman and W.A. Goddard III, J. Chem. Phys. 142, 064107 (2015)

   Total energy minimization with Auxiliary Hamiltonian:
      C. Freysoldt, S. Boeck, and J. Neugebauer, Phys. Rev. B 79, 241103(R) (2009)

   Grand-canonical (fixed-potential) DFT:
      R. Sundararaman, W. A. Goddard III and T. A. Arias, J. Chem. Phys. 146, 114104 (2017)

   Linear-tetrahedron sampling for density of states:
      G. Lehmann and M. Taut, Phys. status solidi (b) 54, 469 (1972)

This list may not be complete. Please suggest additional citations or
report any other bugs at https://github.com/shankar1729/jdftx/issues

Initialization completed successfully at t[s]:   4835.10


Computing DFT-D3 correction:
# coordination-number C 3.299 3.321 3.333 3.330 3.312 3.289 3.317 3.518 3.329 3.313 3.302 3.330 3.301 3.299 3.322 3.650 3.264 3.300 3.318 3.331 3.326 3.303 3.300 3.327 3.333 3.318 3.299 3.266 3.518 3.323 3.301 3.304 3.315 3.300 3.312 3.325 3.640 3.327 3.288 3.312 3.330 3.331 3.322 3.300 2.013
# coordination-number N 3.169 3.176 3.186 3.181
# coordination-number Ti 6.407
# coordination-number O 1.023
# diagonal-C6 C 24.29 24.07 23.94 23.97 24.17 24.38 24.11 21.38 23.99 24.16 24.27 23.97 24.27 24.29 24.06 19.73 24.60 24.28 24.10 23.96 24.02 24.25 24.29 24.01 23.94 24.10 24.29 24.58 21.37 24.05 24.28 24.25 24.13 24.29 24.17 24.03 19.83 24.01 24.39 24.17 23.98 23.96 24.06 24.28 29.46
# diagonal-C6 N 15.60 15.60 15.60 15.60
# diagonal-C6 Ti 321.59
# diagonal-C6 O 12.79
EvdW_6 =   -0.038687
EvdW_8 =   -0.031470
Fluid solver invoked on fresh (random / LCAO) wavefunctions
Running a vacuum solve first:

-------- Initial electronic minimization -----------
	FillingsUpdate:  mu: -0.190580786  nElectrons: 218.000000  magneticMoment: [ Abs: 0.01430  Tot: -0.00788 ]
ElecMinimize: Iter:   0  G: -336.484907576129956  |grad|_K:  1.438e-04  alpha:  1.000e+00
	FillingsUpdate:  mu: -0.139473559  nElectrons: 218.000000  magneticMoment: [ Abs: 0.03149  Tot: -0.02131 ]
	SubspaceRotationAdjust: set factor to 0.862
ElecMinimize: Iter:   1  G: -339.334760411862419  |grad|_K:  6.285e-05  alpha:  6.857e-01  linmin:  8.847e-04  t[s]:   5083.05
	FillingsUpdate:  mu: -0.062113378  nElectrons: 218.000000  magneticMoment: [ Abs: 0.05489  Tot: -0.05247 ]
	SubspaceRotationAdjust: set factor to 0.549
ElecMinimize: Iter:   2  G: -339.374151557379662  |grad|_K:  6.575e-05  alpha:  1.167e-01  linmin:  1.197e-03  t[s]:   5235.28
ElecMinimize: 	Predicted alpha/alphaT>3.000000, increasing alphaT to 3.502040e-01.
	FillingsUpdate:  mu: -0.094591202  nElectrons: 218.000000  magneticMoment: [ Abs: 0.10705  Tot: -0.07283 ]
	SubspaceRotationAdjust: set factor to 0.218
ElecMinimize: Iter:   3  G: -339.578193925495441  |grad|_K:  2.640e-05  alpha:  3.038e-01  linmin:  4.595e-04  t[s]:   5428.90
	FillingsUpdate:  mu: -0.057111126  nElectrons: 218.000000  magneticMoment: [ Abs: 0.16714  Tot: -0.14811 ]
	SubspaceRotationAdjust: set factor to 0.131
	SubspaceRotationAdjust: resetting CG because factor has changed by 0.13091
ElecMinimize: 	State modified externally: resetting search direction.
ElecMinimize: Iter:   4  G: -339.604050369067579  |grad|_K:  1.804e-05  alpha:  2.247e-01
	FillingsUpdate:  mu: -0.091912797  nElectrons: 218.000000  magneticMoment: [ Abs: 0.17792  Tot: -0.13546 ]
	SubspaceRotationAdjust: set factor to 0.297
ElecMinimize: Iter:   5  G: -339.629372974821024  |grad|_K:  1.161e-05  alpha:  3.923e-01  linmin:  1.772e-03  t[s]:   5820.85
	FillingsUpdate:  mu: -0.077652753  nElectrons: 218.000000  magneticMoment: [ Abs: 0.23205  Tot: -0.18034 ]
	SubspaceRotationAdjust: set factor to 0.338
ElecMinimize: Iter:   6  G: -339.645853741027338  |grad|_K:  6.599e-06  alpha:  6.360e-01  linmin: -2.746e-06  t[s]:   5972.95
	FillingsUpdate:  mu: -0.067098292  nElectrons: 218.000000  magneticMoment: [ Abs: 0.36962  Tot: -0.31144 ]
	SubspaceRotationAdjust: set factor to 0.274
ElecMinimize: Iter:   7  G: -339.653046946216705  |grad|_K:  6.212e-06  alpha:  7.990e-01  linmin: -3.897e-04  t[s]:   6127.03
	FillingsUpdate:  mu: -0.077226586  nElectrons: 218.000000  magneticMoment: [ Abs: 0.45515  Tot: -0.36520 ]
	SubspaceRotationAdjust: set factor to 0.189
ElecMinimize: Iter:   8  G: -339.655235319954272  |grad|_K:  4.265e-06  alpha:  2.756e-01  linmin:  1.395e-04  t[s]:   6278.01
	FillingsUpdate:  mu: -0.074511474  nElectrons: 218.000000  magneticMoment: [ Abs: 0.59285  Tot: -0.45525 ]
	SubspaceRotationAdjust: set factor to 0.233
ElecMinimize: Iter:   9  G: -339.657095291191126  |grad|_K:  2.507e-06  alpha:  5.197e-01  linmin:  1.206e-05  t[s]:   6429.72
	FillingsUpdate:  mu: -0.069737566  nElectrons: 218.000000  magneticMoment: [ Abs: 0.69290  Tot: -0.51023 ]
	SubspaceRotationAdjust: set factor to 0.243
ElecMinimize: Iter:  10  G: -339.658007122099662  |grad|_K:  2.225e-06  alpha:  6.901e-01  linmin: -3.771e-04  t[s]:   6582.05
	FillingsUpdate:  mu: -0.072869268  nElectrons: 218.000000  magneticMoment: [ Abs: 0.83698  Tot: -0.60748 ]
	SubspaceRotationAdjust: set factor to 0.264
ElecMinimize: Iter:  11  G: -339.658835606696357  |grad|_K:  2.539e-06  alpha:  7.473e-01  linmin: -4.395e-05  t[s]:   6735.50
	FillingsUpdate:  mu: -0.071217007  nElectrons: 218.000000  magneticMoment: [ Abs: 1.01178  Tot: -0.79113 ]
	SubspaceRotationAdjust: set factor to 0.28
ElecMinimize: Iter:  12  G: -339.659662196381817  |grad|_K:  1.919e-06  alpha:  6.005e-01  linmin:  8.406e-05  t[s]:   6887.52
	FillingsUpdate:  mu: -0.072284932  nElectrons: 218.000000  magneticMoment: [ Abs: 1.16603  Tot: -0.97011 ]
	SubspaceRotationAdjust: set factor to 0.348
ElecMinimize: Iter:  13  G: -339.660218082578012  |grad|_K:  1.844e-06  alpha:  7.480e-01  linmin: -1.972e-04  t[s]:   7039.84
	FillingsUpdate:  mu: -0.074028098  nElectrons: 218.000000  magneticMoment: [ Abs: 1.31417  Tot: -1.14628 ]
	SubspaceRotationAdjust: set factor to 0.377
ElecMinimize: Iter:  14  G: -339.660679590041582  |grad|_K:  1.860e-06  alpha:  6.331e-01  linmin: -9.534e-05  t[s]:   7192.11
	FillingsUpdate:  mu: -0.071197899  nElectrons: 218.000000  magneticMoment: [ Abs: 1.52754  Tot: -1.38033 ]
	SubspaceRotationAdjust: set factor to 0.37
ElecMinimize: Iter:  15  G: -339.661144253505768  |grad|_K:  2.070e-06  alpha:  6.536e-01  linmin:  3.853e-04  t[s]:   7343.88
	FillingsUpdate:  mu: -0.072518643  nElectrons: 218.000000  magneticMoment: [ Abs: 1.66023  Tot: -1.49249 ]
	SubspaceRotationAdjust: set factor to 0.567
ElecMinimize: Iter:  16  G: -339.661500100111482  |grad|_K:  1.426e-06  alpha:  4.513e-01  linmin: -3.746e-05  t[s]:   7495.74
	FillingsUpdate:  mu: -0.075130913  nElectrons: 218.000000  magneticMoment: [ Abs: 1.69950  Tot: -1.51473 ]
	SubspaceRotationAdjust: set factor to 0.54
ElecMinimize: Iter:  17  G: -339.661670059484720  |grad|_K:  1.283e-06  alpha:  4.081e-01  linmin: -4.604e-05  t[s]:   7649.51
	FillingsUpdate:  mu: -0.074204839  nElectrons: 218.000000  magneticMoment: [ Abs: 1.74067  Tot: -1.53436 ]
	SubspaceRotationAdjust: set factor to 0.638
ElecMinimize: Iter:  18  G: -339.661815461137394  |grad|_K:  1.038e-06  alpha:  4.275e-01  linmin: -4.390e-05  t[s]:   7804.20
	FillingsUpdate:  mu: -0.073574159  nElectrons: 218.000000  magneticMoment: [ Abs: 1.77331  Tot: -1.54376 ]
	SubspaceRotationAdjust: set factor to 0.727
ElecMinimize: Iter:  19  G: -339.661951248992125  |grad|_K:  7.665e-07  alpha:  6.014e-01  linmin: -3.350e-05  t[s]:   7955.57
	FillingsUpdate:  mu: -0.074556713  nElectrons: 218.000000  magneticMoment: [ Abs: 1.77897  Tot: -1.54334 ]
	SubspaceRotationAdjust: set factor to 0.636
ElecMinimize: Iter:  20  G: -339.662011483792753  |grad|_K:  8.273e-07  alpha:  4.943e-01  linmin:  1.541e-05  t[s]:   8108.98
	FillingsUpdate:  mu: -0.073576770  nElectrons: 218.000000  magneticMoment: [ Abs: 1.78308  Tot: -1.54344 ]
	SubspaceRotationAdjust: set factor to 0.594
ElecMinimize: Iter:  21  G: -339.662052475828489  |grad|_K:  4.955e-07  alpha:  2.951e-01  linmin:  1.782e-06  t[s]:   8263.28
	FillingsUpdate:  mu: -0.073646952  nElectrons: 218.000000  magneticMoment: [ Abs: 1.77767  Tot: -1.54018 ]
	SubspaceRotationAdjust: set factor to 0.747
ElecMinimize: Iter:  22  G: -339.662088350837337  |grad|_K:  4.798e-07  alpha:  7.177e-01  linmin:  6.205e-06  t[s]:   8415.57
	FillingsUpdate:  mu: -0.074254771  nElectrons: 218.000000  magneticMoment: [ Abs: 1.76960  Tot: -1.53613 ]
	SubspaceRotationAdjust: set factor to 0.669
ElecMinimize: Iter:  23  G: -339.662110510558307  |grad|_K:  5.117e-07  alpha:  4.714e-01  linmin: -1.101e-06  t[s]:   8568.59
	FillingsUpdate:  mu: -0.073536690  nElectrons: 218.000000  magneticMoment: [ Abs: 1.76410  Tot: -1.53405 ]
	SubspaceRotationAdjust: set factor to 0.59
ElecMinimize: Iter:  24  G: -339.662127457301608  |grad|_K:  3.749e-07  alpha:  3.171e-01  linmin: -4.345e-07  t[s]:   8720.05
	FillingsUpdate:  mu: -0.073675340  nElectrons: 218.000000  magneticMoment: [ Abs: 1.75506  Tot: -1.53080 ]
	SubspaceRotationAdjust: set factor to 0.767
ElecMinimize: Iter:  25  G: -339.662142706177917  |grad|_K:  2.619e-07  alpha:  5.326e-01  linmin:  1.301e-05  t[s]:   8874.41
	FillingsUpdate:  mu: -0.073959262  nElectrons: 218.000000  magneticMoment: [ Abs: 1.75021  Tot: -1.53012 ]
	SubspaceRotationAdjust: set factor to 0.629
ElecMinimize: Iter:  26  G: -339.662150238477466  |grad|_K:  2.697e-07  alpha:  5.403e-01  linmin:  5.682e-06  t[s]:   9026.79
	FillingsUpdate:  mu: -0.073546834  nElectrons: 218.000000  magneticMoment: [ Abs: 1.74992  Tot: -1.53173 ]
	SubspaceRotationAdjust: set factor to 0.54
ElecMinimize: Iter:  27  G: -339.662154099712438  |grad|_K:  1.879e-07  alpha:  2.614e-01  linmin:  3.894e-06  t[s]:   9178.16
	FillingsUpdate:  mu: -0.073576843  nElectrons: 218.000000  magneticMoment: [ Abs: 1.74960  Tot: -1.53341 ]
	SubspaceRotationAdjust: set factor to 0.701
ElecMinimize: Iter:  28  G: -339.662157628244017  |grad|_K:  1.308e-07  alpha:  4.903e-01  linmin: -3.483e-06  t[s]:   9330.52
	FillingsUpdate:  mu: -0.073768036  nElectrons: 218.000000  magneticMoment: [ Abs: 1.74975  Tot: -1.53441 ]
	SubspaceRotationAdjust: set factor to 0.701
ElecMinimize: Iter:  29  G: -339.662159632648979  |grad|_K:  1.278e-07  alpha:  5.739e-01  linmin: -8.929e-07  t[s]:   9482.15
	FillingsUpdate:  mu: -0.073617968  nElectrons: 218.000000  magneticMoment: [ Abs: 1.75084  Tot: -1.53536 ]
	SubspaceRotationAdjust: set factor to 0.625
ElecMinimize: Iter:  30  G: -339.662160586046525  |grad|_K:  9.789e-08  alpha:  2.870e-01  linmin:  2.830e-06  t[s]:   9635.82
	FillingsUpdate:  mu: -0.073689953  nElectrons: 218.000000  magneticMoment: [ Abs: 1.75187  Tot: -1.53594 ]
	SubspaceRotationAdjust: set factor to 0.723
ElecMinimize: Iter:  31  G: -339.662161569334728  |grad|_K:  7.136e-08  alpha:  5.040e-01  linmin:  1.742e-06  t[s]:   9787.64
	FillingsUpdate:  mu: -0.073726801  nElectrons: 218.000000  magneticMoment: [ Abs: 1.75272  Tot: -1.53608 ]
	SubspaceRotationAdjust: set factor to 0.823
ElecMinimize: Iter:  32  G: -339.662162205316918  |grad|_K:  6.502e-08  alpha:  6.130e-01  linmin:  1.801e-06  t[s]:   9940.76
	FillingsUpdate:  mu: -0.073640703  nElectrons: 218.000000  magneticMoment: [ Abs: 1.75339  Tot: -1.53611 ]
	SubspaceRotationAdjust: set factor to 0.717
ElecMinimize: Iter:  33  G: -339.662162515124749  |grad|_K:  6.267e-08  alpha:  3.598e-01  linmin:  1.147e-07  t[s]:  10094.52
	FillingsUpdate:  mu: -0.073715874  nElectrons: 218.000000  magneticMoment: [ Abs: 1.75349  Tot: -1.53577 ]
	SubspaceRotationAdjust: set factor to 0.628
ElecMinimize: Iter:  34  G: -339.662162758347847  |grad|_K:  4.073e-08  alpha:  3.037e-01  linmin:  6.847e-08  t[s]:  10246.30
	FillingsUpdate:  mu: -0.073691650  nElectrons: 218.000000  magneticMoment: [ Abs: 1.75369  Tot: -1.53547 ]
	SubspaceRotationAdjust: set factor to 0.789
ElecMinimize: Iter:  35  G: -339.662162965596565  |grad|_K:  2.983e-08  alpha:  6.133e-01  linmin:  1.178e-06  t[s]:  10400.04
	FillingsUpdate:  mu: -0.073663208  nElectrons: 218.000000  magneticMoment: [ Abs: 1.75374  Tot: -1.53532 ]
	SubspaceRotationAdjust: set factor to 0.843
ElecMinimize: Iter:  36  G: -339.662163068989571  |grad|_K:  2.892e-08  alpha:  5.702e-01  linmin: -3.276e-08  t[s]:  10552.26
	FillingsUpdate:  mu: -0.073708940  nElectrons: 218.000000  magneticMoment: [ Abs: 1.75358  Tot: -1.53517 ]
	SubspaceRotationAdjust: set factor to 0.738
ElecMinimize: Iter:  37  G: -339.662163127180406  |grad|_K:  2.756e-08  alpha:  3.406e-01  linmin: -4.357e-07  t[s]:  10703.91
	FillingsUpdate:  mu: -0.073684415  nElectrons: 218.000000  magneticMoment: [ Abs: 1.75359  Tot: -1.53521 ]
	SubspaceRotationAdjust: set factor to 0.696
ElecMinimize: Iter:  38  G: -339.662163178486594  |grad|_K:  1.804e-08  alpha:  3.310e-01  linmin: -5.161e-07  t[s]:  10855.87
ElecMinimize: Converged (|Delta G|<1.000000e-07 for 2 iters).
Setting wave functions to eigenvectors of Hamiltonian
Converging empty states (this may take a while): |deigs|: 6.069e-03
Vacuum energy after initial minimize, F = -339.662163178486594

Shifting auxilliary hamiltonian by -0.071816 to set nElectrons=218.000000

-------- Electronic minimization -----------
	Linear fluid (dielectric constant: 78.4, screening length: 8.12261 Bohr) occupying 0.727762 of unit cell:	Completed after 22 iterations at t[s]:  11560.28
	FillingsUpdate:  mu: -0.145500000  nElectrons: 218.000000  magneticMoment: [ Abs: 1.75342  Tot: -1.53530 ]
ElecMinimize: Iter:   0  G: -339.656568133926044  |grad|_K:  7.897e-06  alpha:  1.000e+00
	Linear fluid (dielectric constant: 78.4, screening length: 8.12261 Bohr) occupying 0.729076 of unit cell:	Completed after 21 iterations at t[s]:  11711.10
	Linear fluid (dielectric constant: 78.4, screening length: 8.12261 Bohr) occupying 0.728618 of unit cell:	Completed after 17 iterations at t[s]:  11774.45
ElecMinimize: 	Step increased G by 1.373146e-03, reducing alpha to 3.680822e-02.
	Linear fluid (dielectric constant: 78.4, screening length: 8.12261 Bohr) occupying 0.727834 of unit cell:	Completed after 19 iterations at t[s]:  11900.40
	FillingsUpdate:  mu: -0.145500000  nElectrons: 217.951821  magneticMoment: [ Abs: 1.71972  Tot: -1.49299 ]
	SubspaceRotationAdjust: set factor to 0.367
ElecMinimize: Iter:   1  G: -339.657435682434937  |grad|_K:  6.535e-06  alpha:  3.681e-02  linmin: -2.689e-02  t[s]:  11965.05
	Linear fluid (dielectric constant: 78.4, screening length: 8.12261 Bohr) occupying 0.727967 of unit cell:	Completed after 15 iterations at t[s]:  12035.15
ElecMinimize: 	Predicted alpha/alphaT>3.000000, increasing alphaT to 1.104246e-01.
	Linear fluid (dielectric constant: 78.4, screening length: 8.12261 Bohr) occupying 0.728265 of unit cell:	Completed after 17 iterations at t[s]:  12098.14
	Linear fluid (dielectric constant: 78.4, screening length: 8.12261 Bohr) occupying 0.728194 of unit cell:	Completed after 13 iterations at t[s]:  12157.73
	FillingsUpdate:  mu: -0.145500000  nElectrons: 217.751663  magneticMoment: [ Abs: 1.58040  Tot: -1.30340 ]
	SubspaceRotationAdjust: set factor to 0.313
ElecMinimize: Iter:   2  G: -339.658962485159179  |grad|_K:  4.970e-06  alpha:  9.272e-02  linmin:  6.837e-04  t[s]:  12224.23
	Linear fluid (dielectric constant: 78.4, screening length: 8.12261 Bohr) occupying 0.728473 of unit cell:	Completed after 15 iterations at t[s]:  12292.96
	Linear fluid (dielectric constant: 78.4, screening length: 8.12261 Bohr) occupying 0.728780 of unit cell:	Completed after 14 iterations at t[s]:  12353.83
	FillingsUpdate:  mu: -0.145500000  nElectrons: 217.553323  magneticMoment: [ Abs: 1.46422  Tot: -1.10848 ]
	SubspaceRotationAdjust: set factor to 0.237
ElecMinimize: Iter:   3  G: -339.660140345302352  |grad|_K:  6.087e-06  alpha:  2.090e-01  linmin: -2.128e-03  t[s]:  12418.87
	Linear fluid (dielectric constant: 78.4, screening length: 8.12261 Bohr) occupying 0.729514 of unit cell:	Completed after 14 iterations at t[s]:  12488.16
	Linear fluid (dielectric constant: 78.4, screening length: 8.12261 Bohr) occupying 0.729658 of unit cell:	Completed after 10 iterations at t[s]:  12544.92
	FillingsUpdate:  mu: -0.145500000  nElectrons: 217.452397  magneticMoment: [ Abs: 1.43482  Tot: -1.01077 ]
	SubspaceRotationAdjust: set factor to 0.19
ElecMinimize: Iter:   4  G: -339.662595953777782  |grad|_K:  5.087e-06  alpha:  2.575e-01  linmin:  1.475e-03  t[s]:  12610.41
	Linear fluid (dielectric constant: 78.4, screening length: 8.12261 Bohr) occupying 0.730296 of unit cell:	Completed after 17 iterations at t[s]:  12681.20
	Linear fluid (dielectric constant: 78.4, screening length: 8.12261 Bohr) occupying 0.729870 of unit cell:	Completed after 15 iterations at t[s]:  12742.98
	FillingsUpdate:  mu: -0.145500000  nElectrons: 217.446679  magneticMoment: [ Abs: 1.43311  Tot: -1.00706 ]
	SubspaceRotationAdjust: set factor to 0.228
ElecMinimize: Iter:   5  G: -339.662774047015660  |grad|_K:  5.251e-06  alpha:  8.389e-02  linmin: -1.773e-05  t[s]:  12808.10
	Linear fluid (dielectric constant: 78.4, screening length: 8.12261 Bohr) occupying 0.730123 of unit cell:	Completed after 13 iterations at t[s]:  12875.02
	Linear fluid (dielectric constant: 78.4, screening length: 8.12261 Bohr) occupying 0.730324 of unit cell:	Completed after 13 iterations at t[s]:  12934.80
	FillingsUpdate:  mu: -0.145500000  nElectrons: 217.439468  magneticMoment: [ Abs: 1.42450  Tot: -1.00679 ]
	SubspaceRotationAdjust: set factor to 0.23
ElecMinimize: Iter:   6  G: -339.663635679807271  |grad|_K:  4.107e-06  alpha:  1.516e-01  linmin: -5.072e-05  t[s]:  13000.05
	Linear fluid (dielectric constant: 78.4, screening length: 8.12261 Bohr) occupying 0.730612 of unit cell:	Completed after 12 iterations at t[s]:  13066.74
	Linear fluid (dielectric constant: 78.4, screening length: 8.12261 Bohr) occupying 0.730577 of unit cell:	Completed after 3 iterations at t[s]:  13117.50
	FillingsUpdate:  mu: -0.145500000  nElectrons: 217.435983  magneticMoment: [ Abs: 1.41261  Tot: -1.00867 ]
	SubspaceRotationAdjust: set factor to 0.241
ElecMinimize: Iter:   7  G: -339.664097068897036  |grad|_K:  3.114e-06  alpha:  1.331e-01  linmin: -2.240e-05  t[s]:  13182.58
	Linear fluid (dielectric constant: 78.4, screening length: 8.12261 Bohr) occupying 0.730718 of unit cell:	Completed after 9 iterations at t[s]:  13247.64
	Linear fluid (dielectric constant: 78.4, screening length: 8.12261 Bohr) occupying 0.730749 of unit cell:	Completed after 4 iterations at t[s]:  13297.99
	FillingsUpdate:  mu: -0.145500000  nElectrons: 217.434325  magneticMoment: [ Abs: 1.39723  Tot: -1.00954 ]
	SubspaceRotationAdjust: set factor to 0.309
ElecMinimize: Iter:   8  G: -339.664419614154781  |grad|_K:  2.953e-06  alpha:  1.624e-01  linmin: -4.343e-05  t[s]:  13364.24
	Linear fluid (dielectric constant: 78.4, screening length: 8.12261 Bohr) occupying 0.730885 of unit cell:	Completed after 10 iterations at t[s]:  13428.69
	Linear fluid (dielectric constant: 78.4, screening length: 8.12261 Bohr) occupying 0.730900 of unit cell:	Completed after 4 iterations at t[s]:  13479.34
	FillingsUpdate:  mu: -0.145500000  nElectrons: 217.434507  magneticMoment: [ Abs: 1.37722  Tot: -1.00872 ]
	SubspaceRotationAdjust: set factor to 0.324
ElecMinimize: Iter:   9  G: -339.664743495756852  |grad|_K:  2.855e-06  alpha:  1.805e-01  linmin: -5.663e-05  t[s]:  13545.98
	Linear fluid (dielectric constant: 78.4, screening length: 8.12261 Bohr) occupying 0.731010 of unit cell:	Completed after 10 iterations at t[s]:  13609.83
	Linear fluid (dielectric constant: 78.4, screening length: 8.12261 Bohr) occupying 0.730992 of unit cell:	Completed after 4 iterations at t[s]:  13661.42
	FillingsUpdate:  mu: -0.145500000  nElectrons: 217.436761  magneticMoment: [ Abs: 1.35961  Tot: -1.00625 ]
	SubspaceRotationAdjust: set factor to 0.378
ElecMinimize: Iter:  10  G: -339.664997251465934  |grad|_K:  2.252e-06  alpha:  1.515e-01  linmin: -1.836e-05  t[s]:  13727.84
	Linear fluid (dielectric constant: 78.4, screening length: 8.12261 Bohr) occupying 0.731020 of unit cell:	Completed after 8 iterations at t[s]:  13789.70
	Linear fluid (dielectric constant: 78.4, screening length: 8.12261 Bohr) occupying 0.731018 of unit cell:	Completed after 2 iterations at t[s]:  13840.38
	FillingsUpdate:  mu: -0.145500000  nElectrons: 217.439220  magneticMoment: [ Abs: 1.34845  Tot: -1.00401 ]
	SubspaceRotationAdjust: set factor to 0.464
ElecMinimize: Iter:  11  G: -339.665139964787443  |grad|_K:  1.793e-06  alpha:  1.378e-01  linmin: -1.219e-05  t[s]:  13905.69
	Linear fluid (dielectric constant: 78.4, screening length: 8.12261 Bohr) occupying 0.731008 of unit cell:	Completed after 6 iterations at t[s]:  13966.03
	Linear fluid (dielectric constant: 78.4, screening length: 8.12261 Bohr) occupying 0.731006 of unit cell:	Completed after 3 iterations at t[s]:  14017.60
	FillingsUpdate:  mu: -0.145500000  nElectrons: 217.441532  magneticMoment: [ Abs: 1.33775  Tot: -1.00212 ]
	SubspaceRotationAdjust: set factor to 0.482
ElecMinimize: Iter:  12  G: -339.665246585599789  |grad|_K:  1.776e-06  alpha:  1.621e-01  linmin: -1.580e-05  t[s]:  14082.71
	Linear fluid (dielectric constant: 78.4, screening length: 8.12261 Bohr) occupying 0.730965 of unit cell:	Completed after 7 iterations at t[s]:  14144.53
	Linear fluid (dielectric constant: 78.4, screening length: 8.12261 Bohr) occupying 0.730958 of unit cell:	Completed after 2 iterations at t[s]:  14194.45
	FillingsUpdate:  mu: -0.145500000  nElectrons: 217.443387  magneticMoment: [ Abs: 1.32112  Tot: -1.00071 ]
	SubspaceRotationAdjust: set factor to 0.514
ElecMinimize: Iter:  13  G: -339.665368655728230  |grad|_K:  1.827e-06  alpha:  1.882e-01  linmin: -2.135e-05  t[s]:  14259.34
	Linear fluid (dielectric constant: 78.4, screening length: 8.12261 Bohr) occupying 0.730878 of unit cell:	Completed after 8 iterations at t[s]:  14323.31
	Linear fluid (dielectric constant: 78.4, screening length: 8.12261 Bohr) occupying 0.730895 of unit cell:	Completed after 3 iterations at t[s]:  14374.33
	FillingsUpdate:  mu: -0.145500000  nElectrons: 217.444117  magneticMoment: [ Abs: 1.30357  Tot: -1.00022 ]
	SubspaceRotationAdjust: set factor to 0.658
ElecMinimize: Iter:  14  G: -339.665470831640050  |grad|_K:  1.378e-06  alpha:  1.487e-01  linmin: -3.807e-06  t[s]:  14438.68
	Linear fluid (dielectric constant: 78.4, screening length: 8.12261 Bohr) occupying 0.730843 of unit cell:	Completed after 7 iterations at t[s]:  14500.91
	Linear fluid (dielectric constant: 78.4, screening length: 8.12261 Bohr) occupying 0.730851 of unit cell:	Completed after 2 iterations at t[s]:  14550.30
	FillingsUpdate:  mu: -0.145500000  nElectrons: 217.444347  magneticMoment: [ Abs: 1.29258  Tot: -1.00010 ]
	SubspaceRotationAdjust: set factor to 0.735
ElecMinimize: Iter:  15  G: -339.665519492441490  |grad|_K:  1.019e-06  alpha:  1.257e-01  linmin: -1.475e-06  t[s]:  14616.57
	Linear fluid (dielectric constant: 78.4, screening length: 8.12261 Bohr) occupying 0.730818 of unit cell:	Completed after 4 iterations at t[s]:  14676.60
	Linear fluid (dielectric constant: 78.4, screening length: 8.12261 Bohr) occupying 0.730808 of unit cell:	Completed after 3 iterations at t[s]:  14726.39
	FillingsUpdate:  mu: -0.145500000  nElectrons: 217.444541  magneticMoment: [ Abs: 1.28215  Tot: -1.00001 ]
	SubspaceRotationAdjust: set factor to 0.762
ElecMinimize: Iter:  16  G: -339.665554251070432  |grad|_K:  1.057e-06  alpha:  1.643e-01  linmin:  1.004e-06  t[s]:  14792.47
	Linear fluid (dielectric constant: 78.4, screening length: 8.12261 Bohr) occupying 0.730755 of unit cell:	Completed after 6 iterations at t[s]:  14853.10
	Linear fluid (dielectric constant: 78.4, screening length: 8.12261 Bohr) occupying 0.730750 of unit cell:	Completed after 2 iterations at t[s]:  14902.69
	FillingsUpdate:  mu: -0.145500000  nElectrons: 217.444905  magneticMoment: [ Abs: 1.26862  Tot: -0.99988 ]
	SubspaceRotationAdjust: set factor to 0.984
ElecMinimize: Iter:  17  G: -339.665595343013138  |grad|_K:  9.973e-07  alpha:  1.806e-01  linmin: -2.452e-06  t[s]:  14968.61
	Linear fluid (dielectric constant: 78.4, screening length: 8.12261 Bohr) occupying 0.730698 of unit cell:	Completed after 7 iterations at t[s]:  15030.61
	Linear fluid (dielectric constant: 78.4, screening length: 8.12261 Bohr) occupying 0.730716 of unit cell:	Completed after 3 iterations at t[s]:  15081.32
	FillingsUpdate:  mu: -0.145500000  nElectrons: 217.445295  magneticMoment: [ Abs: 1.26035  Tot: -0.99974 ]
	SubspaceRotationAdjust: set factor to 1.14
ElecMinimize: Iter:  18  G: -339.665619493472491  |grad|_K:  6.881e-07  alpha:  1.185e-01  linmin:  1.547e-06  t[s]:  15147.06
	Linear fluid (dielectric constant: 78.4, screening length: 8.12261 Bohr) occupying 0.730701 of unit cell:	Completed after 3 iterations at t[s]:  15205.10
	Linear fluid (dielectric constant: 78.4, screening length: 8.12261 Bohr) occupying 0.730700 of unit cell:	Completed after 0 iterations at t[s]:  15252.22
	FillingsUpdate:  mu: -0.145500000  nElectrons: 217.445553  magneticMoment: [ Abs: 1.25512  Tot: -0.99966 ]
	SubspaceRotationAdjust: set factor to 1.24
ElecMinimize: Iter:  19  G: -339.665631700797690  |grad|_K:  6.205e-07  alpha:  1.263e-01  linmin: -7.371e-05  t[s]:  15317.50
	Linear fluid (dielectric constant: 78.4, screening length: 8.12261 Bohr) occupying 0.730688 of unit cell:	Completed after 3 iterations at t[s]:  15375.80
	Linear fluid (dielectric constant: 78.4, screening length: 8.12261 Bohr) occupying 0.730686 of unit cell:	Completed after 2 iterations at t[s]:  15425.55
	FillingsUpdate:  mu: -0.145500000  nElectrons: 217.445710  magneticMoment: [ Abs: 1.24837  Tot: -0.99962 ]
	SubspaceRotationAdjust: set factor to 1.42
ElecMinimize: Iter:  20  G: -339.665643683400731  |grad|_K:  5.749e-07  alpha:  1.474e-01  linmin: -5.895e-05  t[s]:  15490.94
	Linear fluid (dielectric constant: 78.4, screening length: 8.12261 Bohr) occupying 0.730676 of unit cell:	Completed after 7 iterations at t[s]:  15553.90
	Linear fluid (dielectric constant: 78.4, screening length: 8.12261 Bohr) occupying 0.730680 of unit cell:	Completed after 3 iterations at t[s]:  15604.39
	FillingsUpdate:  mu: -0.145500000  nElectrons: 217.445679  magneticMoment: [ Abs: 1.24378  Tot: -0.99964 ]
	SubspaceRotationAdjust: set factor to 1.47
ElecMinimize: Iter:  21  G: -339.665650124317722  |grad|_K:  4.188e-07  alpha:  9.418e-02  linmin:  1.410e-05  t[s]:  15669.91
	Linear fluid (dielectric constant: 78.4, screening length: 8.12261 Bohr) occupying 0.730678 of unit cell:	Completed after 2 iterations at t[s]:  15727.52
	Linear fluid (dielectric constant: 78.4, screening length: 8.12261 Bohr) occupying 0.730677 of unit cell:	Completed after 2 iterations at t[s]:  15776.50
	FillingsUpdate:  mu: -0.145500000  nElectrons: 217.445526  magneticMoment: [ Abs: 1.24012  Tot: -0.99970 ]
	SubspaceRotationAdjust: set factor to 1.24
ElecMinimize: Iter:  22  G: -339.665655009193472  |grad|_K:  4.636e-07  alpha:  1.371e-01  linmin: -1.487e-05  t[s]:  15842.52
	Linear fluid (dielectric constant: 78.4, screening length: 8.12261 Bohr) occupying 0.730678 of unit cell:	Completed after 3 iterations at t[s]:  15900.52
	Linear fluid (dielectric constant: 78.4, screening length: 8.12261 Bohr) occupying 0.730678 of unit cell:	Completed after 0 iterations at t[s]:  15947.18
	FillingsUpdate:  mu: -0.145500000  nElectrons: 217.445329  magneticMoment: [ Abs: 1.23695  Tot: -0.99980 ]
	SubspaceRotationAdjust: set factor to 1.27
ElecMinimize: Iter:  23  G: -339.665660476765481  |grad|_K:  3.343e-07  alpha:  1.238e-01  linmin:  4.787e-05  t[s]:  16013.51
	Linear fluid (dielectric constant: 78.4, screening length: 8.12261 Bohr) occupying 0.730680 of unit cell:	Completed after 4 iterations at t[s]:  16073.36
	Linear fluid (dielectric constant: 78.4, screening length: 8.12261 Bohr) occupying 0.730680 of unit cell:	Completed after 2 iterations at t[s]:  16122.94
	FillingsUpdate:  mu: -0.145500000  nElectrons: 217.445236  magneticMoment: [ Abs: 1.23620  Tot: -0.99984 ]
	SubspaceRotationAdjust: set factor to 1.33
ElecMinimize: Iter:  24  G: -339.665662779796662  |grad|_K:  2.483e-07  alpha:  1.035e-01  linmin:  2.101e-05  t[s]:  16189.31
	Linear fluid (dielectric constant: 78.4, screening length: 8.12261 Bohr) occupying 0.730682 of unit cell:	Completed after 2 iterations at t[s]:  16248.44
	Linear fluid (dielectric constant: 78.4, screening length: 8.12261 Bohr) occupying 0.730684 of unit cell:	Completed after 2 iterations at t[s]:  16298.62
	FillingsUpdate:  mu: -0.145500000  nElectrons: 217.445127  magneticMoment: [ Abs: 1.23596  Tot: -0.99988 ]
	SubspaceRotationAdjust: set factor to 1.2
ElecMinimize: Iter:  25  G: -339.665664837462032  |grad|_K:  2.674e-07  alpha:  1.674e-01  linmin:  1.158e-05  t[s]:  16365.23
	Linear fluid (dielectric constant: 78.4, screening length: 8.12261 Bohr) occupying 0.730690 of unit cell:	Completed after 3 iterations at t[s]:  16425.11
	Linear fluid (dielectric constant: 78.4, screening length: 8.12261 Bohr) occupying 0.730688 of unit cell:	Completed after 1 iterations at t[s]:  16474.82
	FillingsUpdate:  mu: -0.145500000  nElectrons: 217.445033  magneticMoment: [ Abs: 1.23578  Tot: -0.99991 ]
	SubspaceRotationAdjust: set factor to 1.78
ElecMinimize: Iter:  26  G: -339.665666552561675  |grad|_K:  1.907e-07  alpha:  1.180e-01  linmin:  4.256e-05  t[s]:  16540.56
	Linear fluid (dielectric constant: 78.4, screening length: 8.12261 Bohr) occupying 0.730691 of unit cell:	Completed after 2 iterations at t[s]:  16594.45
	Linear fluid (dielectric constant: 78.4, screening length: 8.12261 Bohr) occupying 0.730692 of unit cell:	Completed after 0 iterations at t[s]:  16638.32
	FillingsUpdate:  mu: -0.145500000  nElectrons: 217.444990  magneticMoment: [ Abs: 1.23587  Tot: -0.99991 ]
	SubspaceRotationAdjust: set factor to 1.89
ElecMinimize: Iter:  27  G: -339.665667613586436  |grad|_K:  1.814e-07  alpha:  1.460e-01  linmin: -1.724e-04  t[s]:  16700.67
	Linear fluid (dielectric constant: 78.4, screening length: 8.12261 Bohr) occupying 0.730697 of unit cell:	Completed after 3 iterations at t[s]:  16753.89
	Linear fluid (dielectric constant: 78.4, screening length: 8.12261 Bohr) occupying 0.730698 of unit cell:	Completed after 0 iterations at t[s]:  16797.67
	FillingsUpdate:  mu: -0.145500000  nElectrons: 217.444994  magneticMoment: [ Abs: 1.23658  Tot: -0.99991 ]
	SubspaceRotationAdjust: set factor to 1.77
ElecMinimize: Iter:  28  G: -339.665668699744288  |grad|_K:  1.684e-07  alpha:  1.516e-01  linmin: -2.574e-04  t[s]:  16862.78
	Linear fluid (dielectric constant: 78.4, screening length: 8.12261 Bohr) occupying 0.730703 of unit cell:	Completed after 3 iterations at t[s]:  16921.98
	Linear fluid (dielectric constant: 78.4, screening length: 8.12261 Bohr) occupying 0.730700 of unit cell:	Completed after 2 iterations at t[s]:  16971.25
	FillingsUpdate:  mu: -0.145500000  nElectrons: 217.445020  magneticMoment: [ Abs: 1.23723  Tot: -0.99991 ]
	SubspaceRotationAdjust: set factor to 1.8
ElecMinimize: Iter:  29  G: -339.665669165321958  |grad|_K:  1.130e-07  alpha:  7.596e-02  linmin:  7.034e-05  t[s]:  17037.32
	Linear fluid (dielectric constant: 78.4, screening length: 8.12261 Bohr) occupying 0.730702 of unit cell:	Completed after 1 iterations at t[s]:  17094.24
	Linear fluid (dielectric constant: 78.4, screening length: 8.12261 Bohr) occupying 0.730704 of unit cell:	Completed after 2 iterations at t[s]:  17144.87
	FillingsUpdate:  mu: -0.145500000  nElectrons: 217.445077  magneticMoment: [ Abs: 1.23812  Tot: -0.99989 ]
	SubspaceRotationAdjust: set factor to 1.63
ElecMinimize: Iter:  30  G: -339.665669550375412  |grad|_K:  1.364e-07  alpha:  1.716e-01  linmin:  1.509e-04  t[s]:  17210.83
	Linear fluid (dielectric constant: 78.4, screening length: 8.12261 Bohr) occupying 0.730708 of unit cell:	Completed after 2 iterations at t[s]:  17268.34
	Linear fluid (dielectric constant: 78.4, screening length: 8.12261 Bohr) occupying 0.730706 of unit cell:	Completed after 1 iterations at t[s]:  17317.07
	FillingsUpdate:  mu: -0.145500000  nElectrons: 217.445125  magneticMoment: [ Abs: 1.23871  Tot: -0.99988 ]
	SubspaceRotationAdjust: set factor to 2.22
ElecMinimize: Iter:  31  G: -339.665669873947593  |grad|_K:  9.697e-08  alpha:  9.272e-02  linmin:  8.703e-05  t[s]:  17382.85
	Linear fluid (dielectric constant: 78.4, screening length: 8.12261 Bohr) occupying 0.730707 of unit cell:	Completed after 1 iterations at t[s]:  17439.37
	Linear fluid (dielectric constant: 78.4, screening length: 8.12261 Bohr) occupying 0.730707 of unit cell:	Completed after 2 iterations at t[s]:  17489.04
	FillingsUpdate:  mu: -0.145500000  nElectrons: 217.445158  magneticMoment: [ Abs: 1.23910  Tot: -0.99987 ]
	SubspaceRotationAdjust: set factor to 1.74
ElecMinimize: Iter:  32  G: -339.665670083895463  |grad|_K:  1.019e-07  alpha:  1.405e-01  linmin:  3.298e-04  t[s]:  17555.01
	Linear fluid (dielectric constant: 78.4, screening length: 8.12261 Bohr) occupying 0.730709 of unit cell:	Completed after 1 iterations at t[s]:  17612.17
	Linear fluid (dielectric constant: 78.4, screening length: 8.12261 Bohr) occupying 0.730708 of unit cell:	Completed after 0 iterations at t[s]:  17658.95
	FillingsUpdate:  mu: -0.145500000  nElectrons: 217.445178  magneticMoment: [ Abs: 1.23944  Tot: -0.99986 ]
	SubspaceRotationAdjust: set factor to 2.23
ElecMinimize: Iter:  33  G: -339.665670273494584  |grad|_K:  6.997e-08  alpha:  1.027e-01  linmin:  2.881e-04  t[s]:  17725.42
	Linear fluid (dielectric constant: 78.4, screening length: 8.12261 Bohr) occupying 0.730709 of unit cell:	Completed after 0 iterations at t[s]:  17781.24
	Linear fluid (dielectric constant: 78.4, screening length: 8.12261 Bohr) occupying 0.730709 of unit cell:	Completed after 2 iterations at t[s]:  17830.91
	FillingsUpdate:  mu: -0.145500000  nElectrons: 217.445176  magneticMoment: [ Abs: 1.23956  Tot: -0.99986 ]
	SubspaceRotationAdjust: set factor to 1.82
ElecMinimize: Iter:  34  G: -339.665670369614361  |grad|_K:  7.806e-08  alpha:  1.763e-01  linmin:  1.201e-03  t[s]:  17896.55
	Linear fluid (dielectric constant: 78.4, screening length: 8.12261 Bohr) occupying 0.730710 of unit cell:	Completed after 2 iterations at t[s]:  17954.04
	Linear fluid (dielectric constant: 78.4, screening length: 8.12261 Bohr) occupying 0.730709 of unit cell:	Completed after 0 iterations at t[s]:  18000.79
	FillingsUpdate:  mu: -0.145500000  nElectrons: 217.445158  magneticMoment: [ Abs: 1.23938  Tot: -0.99987 ]
	SubspaceRotationAdjust: set factor to 2.28
ElecMinimize: Iter:  35  G: -339.665670456900955  |grad|_K:  5.574e-08  alpha:  8.698e-02  linmin:  3.421e-04  t[s]:  18066.29
ElecMinimize: Converged (|Delta G|<1.000000e-07 for 2 iters).
Setting wave functions to eigenvectors of Hamiltonian
Converging empty states (this may take a while): |deigs|: 7.641e-04
Single-point solvation energy estimate, DeltaG = -0.003507278414361

Computing DFT-D3 correction:
# coordination-number C 3.299 3.321 3.333 3.330 3.312 3.289 3.317 3.518 3.329 3.313 3.302 3.330 3.301 3.299 3.322 3.650 3.264 3.300 3.318 3.331 3.326 3.303 3.300 3.327 3.333 3.318 3.299 3.266 3.518 3.323 3.301 3.304 3.315 3.300 3.312 3.325 3.640 3.327 3.288 3.312 3.330 3.331 3.322 3.300 2.013
# coordination-number N 3.169 3.176 3.186 3.181
# coordination-number Ti 6.407
# coordination-number O 1.023
# diagonal-C6 C 24.29 24.07 23.94 23.97 24.17 24.38 24.11 21.38 23.99 24.16 24.27 23.97 24.27 24.29 24.06 19.73 24.60 24.28 24.10 23.96 24.02 24.25 24.29 24.01 23.94 24.10 24.29 24.58 21.37 24.05 24.28 24.25 24.13 24.29 24.17 24.03 19.83 24.01 24.39 24.17 23.98 23.96 24.06 24.28 29.46
# diagonal-C6 N 15.60 15.60 15.60 15.60
# diagonal-C6 Ti 321.59
# diagonal-C6 O 12.79
EvdW_6 =   -0.038687
EvdW_8 =   -0.031470

# Ionic positions in cartesian coordinates:
ion C   0.070100000000000   0.134789000000000  43.284200000000013 1
ion C  21.112342000000002   4.087818000000001  43.262556000000004 1
ion C  18.767339000000000   8.088962000000002  43.126584000000008 1
ion C  -6.978957000000000  12.091066000000000  43.109755000000007 1
ion C  -9.303451000000001  16.105857000000004  43.205832000000008 1
ion C   4.752070000000000   0.233231000000000   0.075368000000000 1
ion C   2.361000000000001   4.259973000000000   0.202728000000000 1
ion C  -0.053220000000000   8.073282000000003   0.139565000000000 1
ion C  -2.364056000000001  12.077831000000000  43.231668000000006 1
ion C  -4.655040000000001  16.107151000000002  43.236777000000004 1
ion C   9.445013000000001   0.120510000000000  43.279884000000010 1
ion C   7.152951000000000   4.224571000000000   0.154815000000000 1
ion C   0.042865000000001  15.999962000000002   0.081365000000000 1
ion C   2.412789999999998  19.970099000000008  43.287748000000001 1
ion C  11.825090000000001   4.074186000000000  43.235178000000005 1
ion C   9.529936000000001   8.066629000000002   0.055940000000000 1
ion C   4.738422999999999  15.870022000000004   0.160441000000000 1
ion C   7.063594000000002  19.978356999999999  43.275639000000005 1
ion C  16.467637000000000   4.059332000000001  43.184341000000011 1
ion C  14.156316000000000   8.083506000000002  43.114897000000006 1
ion C  11.841988999999998  12.088307000000002  43.167647000000009 1
ion C   9.444915000000000  16.029749000000002  -0.004919000000000 1
ion C   0.057026000000000   2.822223000000000   0.070211000000000 1
ion C  -2.353290000000000   6.740303000000002  43.228932000000007 1
ion C  -4.673586000000001  10.741102000000001  43.123967000000007 1
ion C  -6.979236000000000  14.767020000000002  43.176205000000010 1
ion C  -9.305935000000002  18.793316000000004  43.280140000000010 1
ion C   4.749373000000001   2.952209000000000   0.179156000000000 1
ion C  -0.061128000000000  10.753753000000000   0.165215000000000 1
ion C  -2.334593000000002  14.747680000000004  43.271447000000009 1
ion C  -4.654189000000001  18.792616000000002  43.287390000000009 1
ion C   9.456440000000001   2.801724000000001   0.029580000000000 1
ion C   2.346637999999999  14.559713000000002   0.228322000000000 1
ion C   0.055394000000000  18.684460000000001  43.291372000000003 1
ion C  14.145689000000001   2.715880000000000  43.225709000000009 1
ion C  11.846804000000001   6.745881000000001  43.201654000000005 1
ion C   9.527739999999998  10.766360000000002   0.017439000000000 1
ion C   7.141645000000000  14.597035000000002   0.096762000000000 1
ion C   4.738000999999997  18.589581000000003   0.066521000000000 1
ion C  18.794758999999999   2.723483000000000  43.232368000000008 1
ion C  16.463659000000000   6.734289000000001  43.116450000000007 1
ion C  14.153921000000004  10.755756000000002  43.107046000000004 1
ion C  11.813143999999996  14.761788000000005  43.195364000000005 1
ion C   9.430783000000000  18.711845000000007  43.264944000000007 1
ion C   3.520154999999999   7.482983000000002   5.046843000000001 1
ion N   2.216728999999999  11.961081000000004   0.445371000000000 1
ion N   7.251443000000002  12.006242000000002   0.163022000000000 1
ion N   2.245089999999999   6.873511000000001   0.385483000000000 1
ion N   7.258503000000001   6.814620000000001   0.285129000000000 1
ion Ti   4.891445000000001   9.410652000000002   1.830156000000000 1
ion O   2.633784000000001   6.310397000000001   6.666245000000001 1

# Forces in Cartesian coordinates:
force C   0.000014524229744   0.000071034362363  -0.000048244992761 1
force C  -0.000002800818159  -0.000184249086227  -0.000059487541429 1
force C  -0.000032283939990  -0.000140794360237   0.000029553578413 1
force C   0.000023640256049  -0.000121761004549   0.000023560366401 1
force C  -0.000041494566909  -0.000031618455298  -0.000064568377860 1
force C  -0.000037554374888   0.000017287888729  -0.000084970660313 1
force C   0.000162641395456   0.000029425153586  -0.000127119850199 1
force C   0.000025201718387   0.000018469521329   0.000014203693587 1
force C  -0.000001802556055  -0.000055694147767   0.000127893968127 1
force C  -0.000061446893967  -0.000050343649619  -0.000094804377506 1
force C  -0.000029643496438  -0.000073984306177  -0.000048368669234 1
force C  -0.000039203507745  -0.000056341876480  -0.000073654925622 1
force C  -0.000082827111174  -0.000131078897385   0.000081990881967 1
force C  -0.000188476984330  -0.000078868703951  -0.000017914309406 1
force C  -0.000086277953963  -0.000230828475992   0.000019915054665 1
force C  -0.000034929004296  -0.000055964212063   0.000028914551180 1
force C  -0.000014406354345  -0.000007489274033   0.000084726595574 1
force C   0.000053646320270  -0.000057547554483  -0.000031533453673 1
force C  -0.000067711196038  -0.000198837095738   0.000058944296711 1
force C   0.000067587008083  -0.000145499531148   0.000095869741265 1
force C   0.000122555252537   0.000053951569618   0.000123777471043 1
force C   0.000068855287582  -0.000044370855436  -0.000001946368003 1
force C  -0.000019039936078   0.000204695035058  -0.000023292622844 1
force C   0.000026738661729   0.000060878632046   0.000125935064727 1
force C   0.000025732515426   0.000051448286580   0.000016472274265 1
force C  -0.000034666977587   0.000080225313343  -0.000010115815643 1
force C  -0.000137494401215   0.000043318014112  -0.000109511386259 1
force C  -0.000034783616395   0.000069716124713  -0.000050911378595 1
force C  -0.000133197088745   0.000046915425996   0.000063844004396 1
force C  -0.000033244736048  -0.000010026735653  -0.000003055187141 1
force C   0.000049078976889   0.000007306480665  -0.000094690100439 1
force C   0.000059189991638   0.000162198439430  -0.000038351160004 1
force C   0.000025066919241  -0.000089139276925  -0.000039122066785 1
force C  -0.000062496510782   0.000084119841760   0.000027980408250 1
force C   0.000034224734620   0.000059698076401  -0.000013483301855 1
force C   0.000105527734686   0.000019890109975   0.000117756775244 1
force C   0.000107073168959   0.000096636546526  -0.000005451661461 1
force C   0.000067884359702   0.000017308467797  -0.000054159052247 1
force C  -0.000000657981283   0.000066892720232   0.000048163942102 1
force C  -0.000016157726408   0.000051931262355  -0.000063354480214 1
force C   0.000069217417401   0.000113436689762   0.000055572352925 1
force C   0.000189515034564   0.000014310607287   0.000082788733332 1
force C   0.000041241631631   0.000110758930751   0.000013386768230 1
force C   0.000086545849377   0.000240214880955  -0.000032906937231 1
force C  -0.000046914382073   0.000011707718142   0.000002090625806 1
force N  -0.000077936262889  -0.000000039864621  -0.000043303577551 1
force N   0.000083740296174  -0.000077603418817  -0.000070291374502 1
force N  -0.000029029754601   0.000065072154758   0.000006003917159 1
force N   0.000156826639692   0.000073726976929  -0.000019025247506 1
force Ti  -0.000056445063765  -0.000279060754813  -0.000249560235856 1
force O  -0.000161530115775  -0.000031805807546   0.000128787495812 1

# Energy components:
   A_diel =        0.0133008668502704
   Eewald =     1602.3580046906452026
       EH =     1892.4217802666983061
     Eloc =    -4004.1187579287329754
      Enl =       50.3438168480172905
     EvdW =       -0.0701564911367113
      Exc =     -104.9345476110077868
 Exc_core =        3.2445005636460276
       KE =      189.4321909969374929
  MuShift =        0.0059337084280158
-------------------------------------
     Etot =     -371.3039340896551153
       TS =        0.0000068191483896
-------------------------------------
        F =     -371.3039409088034972
      muN =      -31.6382704519025211
-------------------------------------
        G =     -339.6656704569009548


Dumping 'jdft.fillings' ... done
Dumping 'jdft.wfns' ... done
Dumping 'jdft.fluidState' ... done
Dumping 'jdft.ionpos' ... done
Dumping 'jdft.lattice' ... done
Dumping 'jdft.eigenvals' ... done
Dumping 'jdft.eigStats' ... 
	eMin: -2.280932 at state 9 ( [ +0.000000 +0.000000 +0.000000 ] spin -1 )
	HOMO: -0.154402 at state 8 ( [ -0.333333 -0.333333 +0.000000 ] spin 1 )
	mu  : -0.145500
	LUMO: -0.138593 at state 0 ( [ +0.000000 +0.000000 +0.000000 ] spin 1 )
	eMax: +0.015333 at state 0 ( [ +0.000000 +0.000000 +0.000000 ] spin 1 )
	HOMO-LUMO gap: +0.015809
	Optical gap  : +0.023613 at state 8 ( [ -0.333333 -0.333333 +0.000000 ] spin 1 )
Dumping 'jdft.Ecomponents' ... done
IonicMinimize: Iter:   0  G: -339.665670456900955  |grad|_K:  8.649e-05  t[s]:  19136.94
IonicMinimize: Converged (|grad|_K<1.000000e-04).

#--- Lowdin population analysis ---
# oxidation-state C +0.046 +0.050 +0.044 +0.050 +0.042 +0.046 +0.162 +0.133 +0.033 +0.042 +0.044 +0.175 +0.032 +0.048 +0.057 +0.126 +0.004 +0.049 +0.040 +0.045 +0.034 +0.031 +0.030 +0.033 +0.045 +0.043 +0.051 +0.007 +0.146 +0.055 +0.049 +0.031 +0.170 +0.046 +0.043 +0.035 +0.132 +0.175 +0.047 +0.043 +0.051 +0.046 +0.058 +0.045 +0.108
# magnetic-moments C +0.001 -0.004 -0.000 -0.000 -0.001 -0.001 -0.013 -0.003 -0.000 +0.000 -0.003 -0.012 +0.003 -0.002 +0.001 +0.001 +0.006 -0.001 +0.001 +0.001 -0.002 -0.000 +0.002 -0.002 -0.002 +0.001 -0.000 +0.009 -0.004 -0.004 +0.001 +0.001 -0.010 +0.001 +0.000 -0.002 +0.005 -0.006 -0.000 +0.001 +0.000 +0.000 +0.004 -0.001 -0.191
# oxidation-state N -0.306 -0.317 -0.270 -0.291
# magnetic-moments N +0.011 +0.014 +0.025 +0.021
# oxidation-state Ti +1.398
# magnetic-moments Ti -0.709
# oxidation-state O -0.127
# magnetic-moments O -0.100


Dumping 'jdft.n_up' ... done
Dumping 'jdft.n_dn' ... done
Dumping 'jdft.tau_up' ... done
Dumping 'jdft.tau_dn' ... done
Dumping 'jdft.eigenvals' ... done
Dumping 'jdft.eigStats' ... 
	eMin: -2.280932 at state 9 ( [ +0.000000 +0.000000 +0.000000 ] spin -1 )
	HOMO: -0.154402 at state 8 ( [ -0.333333 -0.333333 +0.000000 ] spin 1 )
	mu  : -0.145500
	LUMO: -0.138593 at state 0 ( [ +0.000000 +0.000000 +0.000000 ] spin 1 )
	eMax: +0.015333 at state 0 ( [ +0.000000 +0.000000 +0.000000 ] spin 1 )
	HOMO-LUMO gap: +0.015809
	Optical gap  : +0.023613 at state 8 ( [ -0.333333 -0.333333 +0.000000 ] spin 1 )
Dumping 'jdft.kPts' ... done
Dumping 'jdft.dosUp' ... done.
Dumping 'jdft.dosDn' ... done.
End date and time: Tue Mar 14 18:53:38 2023  (Duration: 0-5:20:39.12)
Done!

PROFILER:             augmentDensityGrid     1.064088 +/-     1.289296 s,  860 calls,    915.115341 s total
PROFILER:         augmentDensityGridGrad     0.645574 +/-     0.684729 s,  428 calls,    276.305565 s total
PROFILER:        augmentDensitySpherical     0.000668 +/-     0.000914 s,  860 calls,      0.574589 s total
PROFILER:    augmentDensitySphericalGrad     0.000675 +/-     0.001398 s,  692 calls,      0.467423 s total
PROFILER:                 augmentOverlap     2.060684 +/-     2.911930 s, 1732 calls,   3569.105280 s total
PROFILER:        ColumnBundle::randomize     0.006300 +/-     0.000000 s,    1 calls,      0.006300 s total
PROFILER:                     diagouterI    22.948092 +/-     5.425077 s,  218 calls,   5002.683981 s total
PROFILER:              EdensityAndVscloc     6.144804 +/-     7.475367 s,  216 calls,   1327.277635 s total
PROFILER:                     EnlAndGrad     0.001714 +/-     0.002821 s,  880 calls,      1.508324 s total
PROFILER:            ExCorrCommunication     0.089386 +/-     0.108201 s, 1309 calls,    117.006440 s total
PROFILER:               ExCorrFunctional     0.036715 +/-     0.004710 s,  220 calls,      8.077221 s total
PROFILER:                    ExCorrTotal     0.936737 +/-     0.220026 s,  220 calls,    206.082167 s total
PROFILER:                   Idag_DiagV_I    30.279468 +/-    20.525477 s,  172 calls,   5208.068550 s total
PROFILER:                    initWeights     2.522055 +/-     0.000000 s,    1 calls,      2.522055 s total
PROFILER:                    inv(matrix)     0.002460 +/-     0.000219 s,  149 calls,      0.366521 s total
PROFILER:            matrix::diagonalize     0.013343 +/-     0.007136 s,  386 calls,      5.150237 s total
PROFILER:                    matrix::set     0.000003 +/-     0.000003 s, 20629 calls,      0.057031 s total
PROFILER:            orthoMatrix(matrix)     0.002292 +/-     0.000667 s,  215 calls,      0.492855 s total
PROFILER:     RadialFunctionR::transform     0.030028 +/-     0.231256 s,  141 calls,      4.233911 s total
PROFILER:                    reduceKmesh     0.000000 +/-     0.000000 s,    1 calls,      0.000000 s total
PROFILER:   VanDerWaalsD3::energyAndGrad     0.039466 +/-     0.003213 s,    3 calls,      0.118398 s total
PROFILER:               WavefunctionDrag    20.109420 +/-     0.000000 s,    1 calls,     20.109420 s total
PROFILER:                            Y*M     0.913609 +/-     1.157254 s, 3349 calls,   3059.677743 s total
PROFILER:                          Y1^Y2     0.869080 +/-     1.169478 s, 2343 calls,   2036.254048 s total

MEMUSAGE:                   ColumnBundle     1.307997 GB
MEMUSAGE:        complexScalarFieldTilde     0.074158 GB
MEMUSAGE:                    IndexArrays     0.023178 GB
MEMUSAGE:                         matrix     0.020558 GB
MEMUSAGE:                           misc     0.050872 GB
MEMUSAGE:                    ScalarField     0.358429 GB
MEMUSAGE:               ScalarFieldTilde     0.262436 GB
MEMUSAGE:                          Total     1.587284 GB
