
*************** JDFTx 1.7.0 (git hash 5f12716a) ***************

Start date and time: Tue Mar 14 13:34:35 2023
Executable /home/nisi6161/jdftx_alpine/build/jdftx with command-line: -i in
Running on hosts (process indices):  c3cpu-c11-u32-3.rc.int.colorado.edu (0-17)
Divided in process groups (process indices):  0 (0)  1 (1)  2 (2)  3 (3)  4 (4)  5 (5)  6 (6)  7 (7)  8 (8)  9 (9)  10 (10)  11 (11)  12 (12)  13 (13)  14 (14)  15 (15)  16 (16)  17 (17)
Resource initialization completed at t[s]:      0.01
Run totals: 18 processes, 32 threads, 0 GPUs


Input parsed successfully to the following command list (including defaults):

basis kpoint-dependent
converge-empty-states yes
coords-type Cartesian
core-overlap-check none
coulomb-interaction Periodic
davidson-band-ratio 1.1
density-of-states Etol 1.000000e-06 Esigma 1.000000e-03 \
		Complete \
	Total \
	OrthoOrbital C 1   s \
	OrthoOrbital C 1   p \
	OrthoOrbital C 1   px \
	OrthoOrbital C 1   py \
	OrthoOrbital C 1   pz \
	OrthoOrbital C 2   s \
	OrthoOrbital C 2   p \
	OrthoOrbital C 2   px \
	OrthoOrbital C 2   py \
	OrthoOrbital C 2   pz \
	OrthoOrbital C 3   s \
	OrthoOrbital C 3   p \
	OrthoOrbital C 3   px \
	OrthoOrbital C 3   py \
	OrthoOrbital C 3   pz \
	OrthoOrbital C 4   s \
	OrthoOrbital C 4   p \
	OrthoOrbital C 4   px \
	OrthoOrbital C 4   py \
	OrthoOrbital C 4   pz \
	OrthoOrbital C 5   s \
	OrthoOrbital C 5   p \
	OrthoOrbital C 5   px \
	OrthoOrbital C 5   py \
	OrthoOrbital C 5   pz \
	OrthoOrbital C 6   s \
	OrthoOrbital C 6   p \
	OrthoOrbital C 6   px \
	OrthoOrbital C 6   py \
	OrthoOrbital C 6   pz \
	OrthoOrbital C 7   s \
	OrthoOrbital C 7   p \
	OrthoOrbital C 7   px \
	OrthoOrbital C 7   py \
	OrthoOrbital C 7   pz \
	OrthoOrbital C 8   s \
	OrthoOrbital C 8   p \
	OrthoOrbital C 8   px \
	OrthoOrbital C 8   py \
	OrthoOrbital C 8   pz \
	OrthoOrbital C 9   s \
	OrthoOrbital C 9   p \
	OrthoOrbital C 9   px \
	OrthoOrbital C 9   py \
	OrthoOrbital C 9   pz \
	OrthoOrbital C 10   s \
	OrthoOrbital C 10   p \
	OrthoOrbital C 10   px \
	OrthoOrbital C 10   py \
	OrthoOrbital C 10   pz \
	OrthoOrbital C 11   s \
	OrthoOrbital C 11   p \
	OrthoOrbital C 11   px \
	OrthoOrbital C 11   py \
	OrthoOrbital C 11   pz \
	OrthoOrbital C 12   s \
	OrthoOrbital C 12   p \
	OrthoOrbital C 12   px \
	OrthoOrbital C 12   py \
	OrthoOrbital C 12   pz \
	OrthoOrbital C 13   s \
	OrthoOrbital C 13   p \
	OrthoOrbital C 13   px \
	OrthoOrbital C 13   py \
	OrthoOrbital C 13   pz \
	OrthoOrbital C 14   s \
	OrthoOrbital C 14   p \
	OrthoOrbital C 14   px \
	OrthoOrbital C 14   py \
	OrthoOrbital C 14   pz \
	OrthoOrbital C 15   s \
	OrthoOrbital C 15   p \
	OrthoOrbital C 15   px \
	OrthoOrbital C 15   py \
	OrthoOrbital C 15   pz \
	OrthoOrbital C 16   s \
	OrthoOrbital C 16   p \
	OrthoOrbital C 16   px \
	OrthoOrbital C 16   py \
	OrthoOrbital C 16   pz \
	OrthoOrbital C 17   s \
	OrthoOrbital C 17   p \
	OrthoOrbital C 17   px \
	OrthoOrbital C 17   py \
	OrthoOrbital C 17   pz \
	OrthoOrbital C 18   s \
	OrthoOrbital C 18   p \
	OrthoOrbital C 18   px \
	OrthoOrbital C 18   py \
	OrthoOrbital C 18   pz \
	OrthoOrbital C 19   s \
	OrthoOrbital C 19   p \
	OrthoOrbital C 19   px \
	OrthoOrbital C 19   py \
	OrthoOrbital C 19   pz \
	OrthoOrbital C 20   s \
	OrthoOrbital C 20   p \
	OrthoOrbital C 20   px \
	OrthoOrbital C 20   py \
	OrthoOrbital C 20   pz \
	OrthoOrbital C 21   s \
	OrthoOrbital C 21   p \
	OrthoOrbital C 21   px \
	OrthoOrbital C 21   py \
	OrthoOrbital C 21   pz \
	OrthoOrbital C 22   s \
	OrthoOrbital C 22   p \
	OrthoOrbital C 22   px \
	OrthoOrbital C 22   py \
	OrthoOrbital C 22   pz \
	OrthoOrbital C 23   s \
	OrthoOrbital C 23   p \
	OrthoOrbital C 23   px \
	OrthoOrbital C 23   py \
	OrthoOrbital C 23   pz \
	OrthoOrbital C 24   s \
	OrthoOrbital C 24   p \
	OrthoOrbital C 24   px \
	OrthoOrbital C 24   py \
	OrthoOrbital C 24   pz \
	OrthoOrbital C 25   s \
	OrthoOrbital C 25   p \
	OrthoOrbital C 25   px \
	OrthoOrbital C 25   py \
	OrthoOrbital C 25   pz \
	OrthoOrbital C 26   s \
	OrthoOrbital C 26   p \
	OrthoOrbital C 26   px \
	OrthoOrbital C 26   py \
	OrthoOrbital C 26   pz \
	OrthoOrbital C 27   s \
	OrthoOrbital C 27   p \
	OrthoOrbital C 27   px \
	OrthoOrbital C 27   py \
	OrthoOrbital C 27   pz \
	OrthoOrbital C 28   s \
	OrthoOrbital C 28   p \
	OrthoOrbital C 28   px \
	OrthoOrbital C 28   py \
	OrthoOrbital C 28   pz \
	OrthoOrbital C 29   s \
	OrthoOrbital C 29   p \
	OrthoOrbital C 29   px \
	OrthoOrbital C 29   py \
	OrthoOrbital C 29   pz \
	OrthoOrbital C 30   s \
	OrthoOrbital C 30   p \
	OrthoOrbital C 30   px \
	OrthoOrbital C 30   py \
	OrthoOrbital C 30   pz \
	OrthoOrbital C 31   s \
	OrthoOrbital C 31   p \
	OrthoOrbital C 31   px \
	OrthoOrbital C 31   py \
	OrthoOrbital C 31   pz \
	OrthoOrbital C 32   s \
	OrthoOrbital C 32   p \
	OrthoOrbital C 32   px \
	OrthoOrbital C 32   py \
	OrthoOrbital C 32   pz \
	OrthoOrbital C 33   s \
	OrthoOrbital C 33   p \
	OrthoOrbital C 33   px \
	OrthoOrbital C 33   py \
	OrthoOrbital C 33   pz \
	OrthoOrbital C 34   s \
	OrthoOrbital C 34   p \
	OrthoOrbital C 34   px \
	OrthoOrbital C 34   py \
	OrthoOrbital C 34   pz \
	OrthoOrbital C 35   s \
	OrthoOrbital C 35   p \
	OrthoOrbital C 35   px \
	OrthoOrbital C 35   py \
	OrthoOrbital C 35   pz \
	OrthoOrbital C 36   s \
	OrthoOrbital C 36   p \
	OrthoOrbital C 36   px \
	OrthoOrbital C 36   py \
	OrthoOrbital C 36   pz \
	OrthoOrbital C 37   s \
	OrthoOrbital C 37   p \
	OrthoOrbital C 37   px \
	OrthoOrbital C 37   py \
	OrthoOrbital C 37   pz \
	OrthoOrbital C 38   s \
	OrthoOrbital C 38   p \
	OrthoOrbital C 38   px \
	OrthoOrbital C 38   py \
	OrthoOrbital C 38   pz \
	OrthoOrbital C 39   s \
	OrthoOrbital C 39   p \
	OrthoOrbital C 39   px \
	OrthoOrbital C 39   py \
	OrthoOrbital C 39   pz \
	OrthoOrbital C 40   s \
	OrthoOrbital C 40   p \
	OrthoOrbital C 40   px \
	OrthoOrbital C 40   py \
	OrthoOrbital C 40   pz \
	OrthoOrbital C 41   s \
	OrthoOrbital C 41   p \
	OrthoOrbital C 41   px \
	OrthoOrbital C 41   py \
	OrthoOrbital C 41   pz \
	OrthoOrbital C 42   s \
	OrthoOrbital C 42   p \
	OrthoOrbital C 42   px \
	OrthoOrbital C 42   py \
	OrthoOrbital C 42   pz \
	OrthoOrbital C 43   s \
	OrthoOrbital C 43   p \
	OrthoOrbital C 43   px \
	OrthoOrbital C 43   py \
	OrthoOrbital C 43   pz \
	OrthoOrbital C 44   s \
	OrthoOrbital C 44   p \
	OrthoOrbital C 44   px \
	OrthoOrbital C 44   py \
	OrthoOrbital C 44   pz \
	OrthoOrbital N 1   s \
	OrthoOrbital N 1   p \
	OrthoOrbital N 1   px \
	OrthoOrbital N 1   py \
	OrthoOrbital N 1   pz \
	OrthoOrbital N 2   s \
	OrthoOrbital N 2   p \
	OrthoOrbital N 2   px \
	OrthoOrbital N 2   py \
	OrthoOrbital N 2   pz \
	OrthoOrbital N 3   s \
	OrthoOrbital N 3   p \
	OrthoOrbital N 3   px \
	OrthoOrbital N 3   py \
	OrthoOrbital N 3   pz \
	OrthoOrbital N 4   s \
	OrthoOrbital N 4   p \
	OrthoOrbital N 4   px \
	OrthoOrbital N 4   py \
	OrthoOrbital N 4   pz \
	OrthoOrbital Ti 1   s \
	OrthoOrbital Ti 1   p \
	OrthoOrbital Ti 1   px \
	OrthoOrbital Ti 1   py \
	OrthoOrbital Ti 1   pz \
	OrthoOrbital Ti 1   d \
	OrthoOrbital Ti 1   dxy \
	OrthoOrbital Ti 1   dyz \
	OrthoOrbital Ti 1   dz2 \
	OrthoOrbital Ti 1   dxz \
	OrthoOrbital Ti 1   dx2-y2
dump End ElecDensity KEdensity BandEigs EigStats RhoAtom DOS Kpoints
dump Ionic State IonicPositions Lattice EigStats Ecomponents
dump 
dump 
dump 
dump 
dump 
dump 
dump 
dump 
dump-name jdft.$VAR
elec-cutoff 20
elec-eigen-algo Davidson
elec-ex-corr gga-PBE
elec-initial-magnetization 0.000000 no
elec-n-bands 125
elec-smearing Fermi 0.001
electronic-minimize  \
	dirUpdateScheme      FletcherReeves \
	linminMethod         DirUpdateRecommended \
	nIterations          100 \
	history              15 \
	knormThreshold       0 \
	energyDiffThreshold  1e-07 \
	nEnergyDiff          2 \
	alphaTstart          1 \
	alphaTmin            1e-10 \
	updateTestStepSize   yes \
	alphaTreduceFactor   0.1 \
	alphaTincreaseFactor 3 \
	nAlphaAdjustMax      3 \
	wolfeEnergy          0.0001 \
	wolfeGradient        0.9 \
	fdTest               no
exchange-regularization WignerSeitzTruncated
fluid LinearPCM 298.000000 1.013250
fluid-anion F- 0.5 MeanFieldLJ \
	epsBulk 1 \
	pMol 0 \
	epsInf 1 \
	Pvap 0 \
	sigmaBulk 0 \
	Rvdw 2.24877 \
	Res 0 \
	tauNuc 343133
fluid-cation Na+ 0.5 MeanFieldLJ \
	epsBulk 1 \
	pMol 0 \
	epsInf 1 \
	Pvap 0 \
	sigmaBulk 0 \
	Rvdw 2.19208 \
	Res 0 \
	tauNuc 343133
fluid-ex-corr lda-TF lda-PZ
fluid-gummel-loop 10 1.000000e-05
fluid-minimize  \
	dirUpdateScheme      PolakRibiere \
	linminMethod         DirUpdateRecommended \
	nIterations          400 \
	history              15 \
	knormThreshold       1e-11 \
	energyDiffThreshold  0 \
	nEnergyDiff          2 \
	alphaTstart          1 \
	alphaTmin            1e-10 \
	updateTestStepSize   yes \
	alphaTreduceFactor   0.1 \
	alphaTincreaseFactor 3 \
	nAlphaAdjustMax      6 \
	wolfeEnergy          0.0001 \
	wolfeGradient        0.9 \
	fdTest               no
fluid-solvent H2O 55.338 ScalarEOS \
	epsBulk 78.4 \
	pMol 0.92466 \
	epsInf 1.77 \
	Pvap 1.06736e-10 \
	sigmaBulk 4.62e-05 \
	Rvdw 2.61727 \
	Res 1.42 \
	tauNuc 343133 \
	poleEl 15 7 1
forces-output-coords Positions
ion C  -0.000292000000000   0.029136000000000  -0.006013000000000 1
ion C  21.024163999999999   3.978041000000000  -0.050048000000000 1
ion C  18.683807999999999   7.974316999999999  -0.181287000000000 1
ion C  -7.032923000000002  11.971454000000000  -0.186824000000000 1
ion C  -9.358456000000004  15.979353000000000  -0.072454000000000 1
ion C   4.681466000000000   0.141290000000000   0.037244000000000 1
ion C   2.290668000000000   4.155372000000000   0.142703000000000 1
ion C  -0.112137000000001   7.954042000000000   0.056190000000000 1
ion C  -2.419850000000001  11.956257999999998  -0.090535000000000 1
ion C  -4.714365000000000  15.982482999999997  -0.069513000000000 1
ion C   9.363919000000001   0.034796000000000  -0.008565000000000 1
ion C   7.066953000000000   4.156590999999999   0.128039000000000 1
ion C  -0.022371000000001  15.875019999999997   0.014794000000000 1
ion C   2.344056999999999  19.833667999999999  -0.009257000000000 1
ion C  11.744833000000000   3.970314000000000  -0.059131000000000 1
ion C   9.464203999999999   7.960900999999999   0.033307000000000 1
ion C   4.669554999999999  15.734778000000000   0.130850000000000 1
ion C   6.988649999999998  19.837734999999995  -0.010165000000000 1
ion C  16.384423000000002   3.950180000000000  -0.118220000000000 1
ion C  14.079727999999999   7.970620000000000  -0.185007000000000 1
ion C  11.765849999999999  11.967594000000000  -0.101869000000000 1
ion C   9.361527000000001  15.883722999999998   0.003374000000000 1
ion C  -0.011833000000000   2.712433000000000   0.017389000000000 1
ion C  -2.415489000000000   6.627148999999999  -0.089151000000000 1
ion C  -4.729811000000001  10.623165999999999  -0.181590000000000 1
ion C  -7.035372000000001  14.643846000000000  -0.118263000000000 1
ion C  -9.360634000000001  18.663215000000001  -0.007873000000000 1
ion C   4.679484000000000   2.859904000000000   0.135609000000000 1
ion C  -0.114451000000001  10.633125000000000   0.054503000000000 1
ion C  -2.395793000000001  14.623293000000000  -0.051562000000000 1
ion C  -4.716344000000001  18.666284999999998  -0.008435000000000 1
ion C   9.371458000000002   2.717949000000000   0.006445000000000 1
ion C   2.282473000000000  14.436119999999999   0.138247000000000 1
ion C  -0.014891000000002  18.558192999999999  -0.006964000000000 1
ion C  14.063299000000001   2.611264000000000  -0.072238000000000 1
ion C  11.769871999999998   6.637309000000000  -0.100225000000000 1
ion C   9.462263999999998  10.640621000000001   0.031447000000000 1
ion C   7.059140999999999  14.441979999999999   0.123237000000000 1
ion C   4.667362000000001  18.453192999999995   0.034216000000000 1
ion C  18.707659000000000   2.615250000000000  -0.069686000000000 1
ion C  16.382722999999999   6.622531000000000  -0.186478000000000 1
ion C  14.077669000000000  10.637615000000002  -0.185397000000000 1
ion C  11.736681000000004  14.634607999999998  -0.061078000000000 1
ion C   9.349914999999999  18.566781999999996  -0.010079000000000 1
ion N   2.175885999999999  11.836374999999999   0.279998000000000 1
ion N   7.170385999999999  11.842261999999998   0.252876000000000 1
ion N   2.180207000000000   6.755269000000000   0.284151000000000 1
ion N   7.174125000000002   6.756614999999999   0.257505000000000 1
ion Ti   4.692641999999998   9.301686999999999   1.865991000000000 1
ion-species /projects/musgravc/apps/jdftx-1.6.0/build/pseudopotentials/GBRV_v1.5/$ID_pbe_v1.uspp
ion-species /projects/musgravc/apps/jdftx-1.6.0/build/pseudopotentials/GBRV_v1.5/$ID_pbe_v1.2.uspp
ion-species /projects/musgravc/apps/jdftx-1.6.0/build/pseudopotentials/GBRV_v1.5/$ID_pbe_v1.4.uspp
ion-species /projects/musgravc/apps/jdftx-1.6.0/build/pseudopotentials/GBRV_v1.5/$ID_pbe_v1.5.uspp
ion-width Ecut
ionic-minimize  \
	dirUpdateScheme      L-BFGS \
	linminMethod         DirUpdateRecommended \
	nIterations          0 \
	history              15 \
	knormThreshold       0.0001 \
	energyDiffThreshold  1e-06 \
	nEnergyDiff          2 \
	alphaTstart          1 \
	alphaTmin            1e-10 \
	updateTestStepSize   yes \
	alphaTreduceFactor   0.1 \
	alphaTincreaseFactor 3 \
	nAlphaAdjustMax      3 \
	wolfeEnergy          0.0001 \
	wolfeGradient        0.9 \
	fdTest               no
kpoint   0.000000000000   0.000000000000   0.000000000000  1.00000000000000
kpoint-folding 3 3 1 
latt-move-scale 0 0 0
latt-scale 1 1 1 
lattice  \
	  23.411431000000000  -11.721092000000001    0.000000000000000  \
	   0.017886000000000   19.906188000000000    0.000000000000000  \
	   0.000000000000000    0.000000000000000   43.256312999999999 
lattice-minimize  \
	dirUpdateScheme      L-BFGS \
	linminMethod         DirUpdateRecommended \
	nIterations          0 \
	history              15 \
	knormThreshold       0 \
	energyDiffThreshold  1e-06 \
	nEnergyDiff          2 \
	alphaTstart          1 \
	alphaTmin            1e-10 \
	updateTestStepSize   yes \
	alphaTreduceFactor   0.1 \
	alphaTincreaseFactor 3 \
	nAlphaAdjustMax      3 \
	wolfeEnergy          0.0001 \
	wolfeGradient        0.9 \
	fdTest               no
lcao-params 30 1e-06 0.001
pcm-variant CANDLE
spintype z-spin
subspace-rotation-factor 1 yes
symmetries none
symmetry-threshold 0.0001
target-mu -0.1455 no

van-der-waals D3


Applied RMS atom displacement 0 bohrs to make symmetries exact.

---------- Initializing the Grid ----------
R = 
[      23.4114     -11.7211            0  ]
[     0.017886      19.9062            0  ]
[            0            0      43.2563  ]
unit cell volume = 20167.9
G =
[    0.26826   0.157956         -0  ]
[ -0.000241036   0.315498          0  ]
[          0         -0   0.145255  ]
Minimum fftbox size, Smin = [  96  96  176  ]
Chosen fftbox size, S = [  96  96  180  ]

---------- Exchange Correlation functional ----------
Initalized PBE GGA exchange.
Initalized PBE GGA correlation.

---------- Setting up pseudopotentials ----------
Width of ionic core gaussian charges (only for fluid interactions / plotting) set to 0.397384

Reading pseudopotential file '/projects/musgravc/apps/jdftx-1.6.0/build/pseudopotentials/GBRV_v1.5/c_pbe_v1.2.uspp':
  Title: C.  Created by USPP 7.3.6 on 3-2-2014
  Reference state energy: -5.406344.  4 valence electrons in orbitals:
    |200>  occupation: 2  eigenvalue: -0.504890
    |210>  occupation: 2  eigenvalue: -0.194356
  lMax: 1  lLocal: 2  QijEcut: 5
  4 projectors sampled on a log grid with 503 points:
    l: 0  eig: -0.504890  rCut: 1.3
    l: 0  eig: 0.000000  rCut: 1.3
    l: 1  eig: -0.194357  rCut: 1.3
    l: 1  eig: 0.000000  rCut: 1.3
  Partial core density with radius 1.1
  Transforming core density to a uniform radial grid of dG=0.02 with 1466 points.
  Transforming local potential to a uniform radial grid of dG=0.02 with 1466 points.
  Transforming nonlocal projectors to a uniform radial grid of dG=0.02 with 432 points.
  Transforming density augmentations to a uniform radial grid of dG=0.02 with 1466 points.
  Transforming atomic orbitals to a uniform radial grid of dG=0.02 with 432 points.
  Core radius for overlap checks: 1.30 bohrs.

Reading pseudopotential file '/projects/musgravc/apps/jdftx-1.6.0/build/pseudopotentials/GBRV_v1.5/n_pbe_v1.2.uspp':
  Title: N.  Created by USPP 7.3.6 on 3-2-2014
  Reference state energy: -9.763716.  5 valence electrons in orbitals:
    |200>  occupation: 2  eigenvalue: -0.681964
    |210>  occupation: 3  eigenvalue: -0.260726
  lMax: 1  lLocal: 2  QijEcut: 6
  4 projectors sampled on a log grid with 491 points:
    l: 0  eig: -0.681964  rCut: 1.15
    l: 0  eig: 0.000000  rCut: 1.15
    l: 1  eig: -0.260729  rCut: 1.2
    l: 1  eig: 0.500000  rCut: 1.2
  Partial core density with radius 0.8
  Transforming core density to a uniform radial grid of dG=0.02 with 1466 points.
  Transforming local potential to a uniform radial grid of dG=0.02 with 1466 points.
  Transforming nonlocal projectors to a uniform radial grid of dG=0.02 with 432 points.
  Transforming density augmentations to a uniform radial grid of dG=0.02 with 1466 points.
  Transforming atomic orbitals to a uniform radial grid of dG=0.02 with 432 points.
  Core radius for overlap checks: 1.20 bohrs.

Reading pseudopotential file '/projects/musgravc/apps/jdftx-1.6.0/build/pseudopotentials/GBRV_v1.5/ti_pbe_v1.4.uspp':
  Title: Ti.  Created by USPP 7.3.6 on 31-3-15
  Reference state energy: -59.020943.  12 valence electrons in orbitals:
    |300>  occupation: 2  eigenvalue: -2.777623
    |310>  occupation: 6  eigenvalue: -1.894596
    |400>  occupation: 2  eigenvalue: -0.438610
    |320>  occupation: 1  eigenvalue: -0.583119
  lMax: 2  lLocal: 3  QijEcut: 6
  6 projectors sampled on a log grid with 597 points:
    l: 0  eig: -2.777624  rCut: 1.8
    l: 0  eig: -0.438611  rCut: 1.8
    l: 1  eig: -1.894596  rCut: 1.8
    l: 1  eig: 0.500000  rCut: 1.8
    l: 2  eig: -0.583118  rCut: 1.8
    l: 2  eig: 0.150000  rCut: 1.8
  Partial core density with radius 0.8
  Transforming core density to a uniform radial grid of dG=0.02 with 1466 points.
  Transforming local potential to a uniform radial grid of dG=0.02 with 1466 points.
  Transforming nonlocal projectors to a uniform radial grid of dG=0.02 with 432 points.
  Transforming density augmentations to a uniform radial grid of dG=0.02 with 1466 points.
  Transforming atomic orbitals to a uniform radial grid of dG=0.02 with 432 points.
  Core radius for overlap checks: 1.80 bohrs.

Initialized 3 species with 49 total atoms.

Folded 1 k-points by 3x3x1 to 9 k-points.

---------- Setting up k-points, bands, fillings ----------
No reducable k-points. 
Computing the number of bands and number of electrons
Calculating initial fillings.
nElectrons: 208.000000   nBands: 125   nStates: 18

----- Setting up reduced wavefunction bases (one per k-point) -----
average nbasis = 86171.667 , ideal nbasis = 86158.846

----- Initializing Supercell corresponding to k-point mesh -----
Lattice vector linear combinations in supercell:
[   3   0   0  ]
[   0   3   0  ]
[   0   0   1  ]
Supercell lattice vectors:
[  70.2343  -35.1633  0  ]
[  0.053658  59.7186  0  ]
[  0  0  43.2563  ]

Initializing DFT-D3 calculator:
	Parameters set for gga-PBE functional
	s6:  1.000  s_r6:  1.217
	s8:  0.722  s_r8:  1.000
	Per-atom parameters loaded for:
	 C:  sqrtQ[a0]:  3.105  Rcov[a0]:  1.417  CN: [ 0.00 0.99 2.00 3.00 3.98 ]
	 N:  sqrtQ[a0]:  2.712  Rcov[a0]:  1.342  CN: [ 0.00 0.99 2.01 2.99 ]
	Ti:  sqrtQ[a0]:  6.288  Rcov[a0]:  2.305  CN: [ 0.00 1.83 3.87 ]

Initializing DFT-D2 calculator for fluid / solvation:
	 C:  C6:   30.35 Eh-a0^6  R0: 2.744 a0
	 N:  C6:   21.33 Eh-a0^6  R0: 2.640 a0
	Ti:  C6:  187.33 Eh-a0^6  R0: 2.952 a0

---------- Setting up ewald sum ----------
Optimum gaussian width for ewald sums = 5.676723 bohr.
Real space sum over 567 unit cells with max indices [  4  4  3  ]
Reciprocal space sum over 7803 terms with max indices [  8  8  13  ]

Computing DFT-D3 correction:
# coordination-number C 3.303 3.326 3.338 3.335 3.316 3.291 3.326 3.565 3.332 3.316 3.303 3.327 3.304 3.304 3.326 3.577 3.268 3.304 3.323 3.338 3.332 3.304 3.304 3.332 3.338 3.323 3.303 3.268 3.565 3.326 3.304 3.304 3.326 3.303 3.316 3.332 3.578 3.328 3.292 3.316 3.335 3.338 3.326 3.303
# coordination-number N 3.175 3.177 3.175 3.176
# coordination-number Ti 5.334
# diagonal-C6 C 24.26 24.02 23.89 23.92 24.12 24.36 24.02 20.72 23.96 24.12 24.25 24.01 24.24 24.25 24.02 20.56 24.56 24.25 24.05 23.89 23.96 24.24 24.24 23.96 23.89 24.05 24.25 24.57 20.71 24.02 24.25 24.24 24.01 24.25 24.12 23.96 20.54 24.00 24.36 24.12 23.92 23.89 24.02 24.25
# diagonal-C6 N 15.60 15.60 15.60 15.60
# diagonal-C6 Ti 321.59
EvdW_6 =   -0.036023
EvdW_8 =   -0.029683

---------- Allocating electronic variables ----------
Initializing wave functions:  linear combination of atomic orbitals
C pseudo-atom occupations:   s ( 2 )  p ( 2 )
N pseudo-atom occupations:   s ( 2 )  p ( 3 )
Ti pseudo-atom occupations:   s ( 2 0 )  p ( 6 )  d ( 4 )
	FillingsUpdate:  mu: -0.145500000  nElectrons: 208.000000  magneticMoment: [ Abs: 0.00394  Tot: -0.00000 ]
LCAOMinimize: Iter:   0  G: -314.8468433303593770  |grad|_K:  2.979e-03  alpha:  1.000e+00
	FillingsUpdate:  mu: -0.145500000  nElectrons: 208.000000  magneticMoment: [ Abs: 0.00383  Tot: -0.00001 ]
LCAOMinimize: Iter:   1  G: -315.1773897221466996  |grad|_K:  1.703e-03  alpha:  8.161e-02  linmin: -1.132e-01  cgtest:  1.395e+00  t[s]:    261.83
LCAOMinimize: Encountered beta<0, resetting CG.
LCAOMinimize: 	Predicted alpha/alphaT>3.000000, increasing alphaT to 2.448340e-01.
LCAOMinimize: 	Step increased G by 2.489420e+00, reducing alpha to 5.097018e-02.
	FillingsUpdate:  mu: -0.145500000  nElectrons: 208.000000  magneticMoment: [ Abs: 0.00379  Tot: -0.00002 ]
LCAOMinimize: Iter:   2  G: -315.2760644891452557  |grad|_K:  1.463e-03  alpha:  5.097e-02  linmin: -1.115e-01  cgtest:  1.038e+00  t[s]:    468.27
LCAOMinimize: Encountered beta<0, resetting CG.
LCAOMinimize: 	Predicted alpha/alphaT>3.000000, increasing alphaT to 1.529105e-01.
LCAOMinimize: 	Predicted alpha/alphaT>3.000000, increasing alphaT to 4.587316e-01.
	FillingsUpdate:  mu: -0.145500000  nElectrons: 208.000000  magneticMoment: [ Abs: 0.00374  Tot: -0.00003 ]
LCAOMinimize: Iter:   3  G: -315.4859282849436681  |grad|_K:  1.229e-03  alpha:  1.448e-01  linmin: -1.423e-01  cgtest:  8.676e-01  t[s]:    624.07
LCAOMinimize: Encountered beta<0, resetting CG.
LCAOMinimize: 	Wrong curvature in test step, increasing alphaT to 4.344938e-01.
	FillingsUpdate:  mu: -0.145500000  nElectrons: 208.000000  magneticMoment: [ Abs: 0.00373  Tot: -0.00006 ]
LCAOMinimize: Iter:   4  G: -315.6745586106718520  |grad|_K:  1.294e-03  alpha: -4.432e-01  linmin: -1.696e-01  cgtest:  7.365e-01  t[s]:    724.12
	FillingsUpdate:  mu: -0.145500000  nElectrons: 208.000000  magneticMoment: [ Abs: 0.00374  Tot: -0.00006 ]
LCAOMinimize: Iter:   5  G: -315.7427402133475880  |grad|_K:  1.339e-03  alpha:  3.566e-02  linmin: -1.797e-01  cgtest:  8.823e-01  t[s]:    827.75
LCAOMinimize: 	Wrong curvature in test step, increasing alphaT to 1.069667e-01.
	FillingsUpdate:  mu: -0.145500000  nElectrons: 208.000000  magneticMoment: [ Abs: 0.00374  Tot: -0.00007 ]
LCAOMinimize: Iter:   6  G: -315.8063378559244825  |grad|_K:  1.382e-03  alpha: -2.321e-01  linmin: -1.889e-01  cgtest:  8.876e-01  t[s]:    927.28
	FillingsUpdate:  mu: -0.145500000  nElectrons: 208.000000  magneticMoment: [ Abs: 0.00375  Tot: -0.00008 ]
LCAOMinimize: Iter:   7  G: -315.8737859735527991  |grad|_K:  1.426e-03  alpha:  3.659e-02  linmin: -1.979e-01  cgtest:  8.793e-01  t[s]:   1030.28
LCAOMinimize: 	Wrong curvature in test step, increasing alphaT to 1.097758e-01.
	FillingsUpdate:  mu: -0.145500000  nElectrons: 208.000000  magneticMoment: [ Abs: 0.00375  Tot: -0.00009 ]
LCAOMinimize: Iter:   8  G: -315.9461983180136713  |grad|_K:  1.466e-03  alpha: -2.107e-01  linmin: -2.061e-01  cgtest:  8.676e-01  t[s]:   1129.78
	FillingsUpdate:  mu: -0.145500000  nElectrons: 208.000000  magneticMoment: [ Abs: 0.00376  Tot: -0.00010 ]
LCAOMinimize: Iter:   9  G: -316.0361411480683955  |grad|_K:  1.499e-03  alpha:  4.165e-02  linmin: -2.137e-01  cgtest:  8.297e-01  t[s]:   1232.97
LCAOMinimize: 	Wrong curvature in test step, increasing alphaT to 1.249396e-01.
	FillingsUpdate:  mu: -0.145500000  nElectrons: 208.000000  magneticMoment: [ Abs: 0.00378  Tot: -0.00011 ]
LCAOMinimize: Iter:  10  G: -316.1354697463957564  |grad|_K:  1.483e-03  alpha: -1.816e-01  linmin: -2.203e-01  cgtest:  7.967e-01  t[s]:   1335.10
	FillingsUpdate:  mu: -0.145500000  nElectrons: 208.000000  magneticMoment: [ Abs: 0.00381  Tot: -0.00018 ]
LCAOMinimize: Iter:  11  G: -316.2455909036946196  |grad|_K:  1.438e-03  alpha:  4.587e-02  linmin: -2.133e-01  cgtest:  6.497e-01  t[s]:   1438.78
	FillingsUpdate:  mu: -0.145500000  nElectrons: 208.000000  magneticMoment: [ Abs: 0.00389  Tot: -0.00041 ]
LCAOMinimize: Iter:  12  G: -316.2712058675537605  |grad|_K:  1.578e-03  alpha:  8.457e-03  linmin: -1.579e-01  cgtest:  7.476e-01  t[s]:   1543.12
LCAOMinimize: 	Wrong curvature in test step, increasing alphaT to 2.536993e-02.
	FillingsUpdate:  mu: -0.145500000  nElectrons: 208.000000  magneticMoment: [ Abs: 0.00403  Tot: -0.00060 ]
LCAOMinimize: Iter:  13  G: -316.3008675928583671  |grad|_K:  1.322e-03  alpha: -5.772e-02  linmin: -1.148e-01  cgtest:  7.946e-01  t[s]:   1645.11
LCAOMinimize: 	Step increased G by 1.174840e-01, reducing alpha to 6.695980e-03.
	FillingsUpdate:  mu: -0.145500000  nElectrons: 208.000000  magneticMoment: [ Abs: 0.00407  Tot: -0.00058 ]
LCAOMinimize: Iter:  14  G: -316.3097625032224869  |grad|_K:  1.099e-03  alpha:  6.696e-03  linmin: -7.893e-02  cgtest:  9.511e-01  t[s]:   1827.74
LCAOMinimize: Encountered beta<0, resetting CG.
LCAOMinimize: 	Predicted alpha/alphaT>3.000000, increasing alphaT to 2.008794e-02.
	FillingsUpdate:  mu: -0.145500000  nElectrons: 208.000000  magneticMoment: [ Abs: 0.00460  Tot: -0.00090 ]
LCAOMinimize: Iter:  15  G: -316.3166286078979397  |grad|_K:  1.177e-03  alpha:  3.910e-02  linmin:  6.574e-02  cgtest: -6.132e-01  t[s]:   1960.41
LCAOMinimize: 	Bad step direction: g.d > 0.
LCAOMinimize: 	Undoing step.
LCAOMinimize: 	Step failed: resetting search direction.
	FillingsUpdate:  mu: -0.145500000  nElectrons: 208.000000  magneticMoment: [ Abs: 0.00460  Tot: -0.00090 ]
LCAOMinimize: Iter:  16  G: -316.3166286078979397  |grad|_K:  1.177e-03  alpha:  0.000e+00
	FillingsUpdate:  mu: -0.145500000  nElectrons: 208.000000  magneticMoment: [ Abs: 0.00452  Tot: -0.00089 ]
LCAOMinimize: Iter:  17  G: -316.3255025329416412  |grad|_K:  2.789e-04  alpha:  2.141e-02  linmin:  4.074e-02  cgtest: -5.685e-01  t[s]:   2141.58
LCAOMinimize: 	Predicted alpha/alphaT>3.000000, increasing alphaT to 6.422322e-02.
	FillingsUpdate:  mu: -0.145500000  nElectrons: 208.000000  magneticMoment: [ Abs: 0.00608  Tot: -0.00248 ]
LCAOMinimize: Iter:  18  G: -316.3290417004420192  |grad|_K:  2.917e-04  alpha:  1.884e-01  linmin:  2.473e-03  cgtest:  6.673e-01  t[s]:   2273.53
	FillingsUpdate:  mu: -0.145500000  nElectrons: 208.000000  magneticMoment: [ Abs: 0.00661  Tot: -0.00299 ]
LCAOMinimize: Iter:  19  G: -316.3296478983727411  |grad|_K:  1.224e-04  alpha:  1.457e-02  linmin: -7.624e-02  cgtest:  9.201e-01  t[s]:   2378.74
LCAOMinimize: Encountered beta<0, resetting CG.
	FillingsUpdate:  mu: -0.145500000  nElectrons: 208.000000  magneticMoment: [ Abs: 0.00727  Tot: -0.00364 ]
LCAOMinimize: Iter:  20  G: -316.3297674737968350  |grad|_K:  5.862e-05  alpha:  2.006e-02  linmin: -1.847e-01  cgtest:  5.693e-01  t[s]:   2484.32
LCAOMinimize: Encountered beta<0, resetting CG.
LCAOMinimize: 	Predicted alpha/alphaT>3.000000, increasing alphaT to 6.016631e-02.
LCAOMinimize: 	Predicted alpha/alphaT>3.000000, increasing alphaT to 1.804989e-01.
	FillingsUpdate:  mu: -0.145500000  nElectrons: 208.000000  magneticMoment: [ Abs: 0.02054  Tot: -0.01641 ]
LCAOMinimize: Iter:  21  G: -316.3302622223773142  |grad|_K:  9.725e-05  alpha:  3.618e-01  linmin: -4.425e-03  cgtest:  9.377e-02  t[s]:   2640.43
	FillingsUpdate:  mu: -0.145500000  nElectrons: 208.000000  magneticMoment: [ Abs: 0.03128  Tot: -0.02656 ]
LCAOMinimize: Iter:  22  G: -316.3304023074314841  |grad|_K:  8.688e-05  alpha:  4.579e-02  linmin:  1.232e-02  cgtest: -7.023e-01  t[s]:   2742.65
	FillingsUpdate:  mu: -0.145500000  nElectrons: 208.000000  magneticMoment: [ Abs: 0.04450  Tot: -0.03896 ]
LCAOMinimize: Iter:  23  G: -316.3304203971996458  |grad|_K:  1.147e-04  alpha:  2.188e-02  linmin:  2.861e-04  cgtest:  9.931e-01  t[s]:   2844.20
	FillingsUpdate:  mu: -0.145500000  nElectrons: 208.000000  magneticMoment: [ Abs: 0.06284  Tot: -0.05606 ]
LCAOMinimize: Iter:  24  G: -316.3305461819745119  |grad|_K:  5.189e-05  alpha:  2.537e-02  linmin: -1.987e-02  cgtest:  2.066e-01  t[s]:   2948.57
LCAOMinimize: 	Wrong curvature in test step, increasing alphaT to 7.610794e-02.
	FillingsUpdate:  mu: -0.145500000  nElectrons: 208.000000  magneticMoment: [ Abs: 0.07895  Tot: -0.07105 ]
LCAOMinimize: Iter:  25  G: -316.3306077430249843  |grad|_K:  5.841e-05  alpha: -1.187e-01  linmin: -7.719e-02  cgtest:  9.927e-01  t[s]:   3050.75
LCAOMinimize: 	Step increased G by 7.110516e-04, reducing alpha to 1.392517e-01.
	FillingsUpdate:  mu: -0.145500000  nElectrons: 208.000000  magneticMoment: [ Abs: 0.18109  Tot: -0.16531 ]
LCAOMinimize: Iter:  26  G: -316.3311560977829231  |grad|_K:  1.186e-04  alpha:  1.393e-01  linmin: -6.024e-02  cgtest:  8.110e-01  t[s]:   3237.76
	FillingsUpdate:  mu: -0.145500000  nElectrons: 208.000000  magneticMoment: [ Abs: 0.39875  Tot: -0.36192 ]
LCAOMinimize: Iter:  27  G: -316.3325863430952154  |grad|_K:  2.445e-04  alpha:  8.449e-02  linmin: -3.272e-03  cgtest:  3.888e-01  t[s]:   3340.85
	FillingsUpdate:  mu: -0.145500000  nElectrons: 208.000000  magneticMoment: [ Abs: 0.46251  Tot: -0.41822 ]
LCAOMinimize: Iter:  28  G: -316.3328245428237437  |grad|_K:  3.016e-04  alpha:  9.937e-03  linmin:  3.547e-03  cgtest:  1.094e+00  t[s]:   3446.83
	FillingsUpdate:  mu: -0.145500000  nElectrons: 208.000000  magneticMoment: [ Abs: 0.45614  Tot: -0.40403 ]
LCAOMinimize: Iter:  29  G: -316.3338073162909723  |grad|_K:  1.144e-04  alpha:  2.967e-02  linmin: -4.349e-03  cgtest:  8.799e-02  t[s]:   3550.18
LCAOMinimize: 	Predicted alpha/alphaT>3.000000, increasing alphaT to 8.902216e-02.
	FillingsUpdate:  mu: -0.145500000  nElectrons: 208.000000  magneticMoment: [ Abs: 0.54649  Tot: -0.48174 ]
LCAOMinimize: Iter:  30  G: -316.3343327733018100  |grad|_K:  1.668e-04  alpha:  1.080e-01  linmin:  2.920e-03  cgtest: -1.333e-02  t[s]:   3682.20
LCAOMinimize: None of the convergence criteria satisfied after 30 iterations.
----- createFluidSolver() ----- (Fluid-side solver setup)
   Initializing fluid molecule 'H2O'
     Initializing site 'O'
       Electron density: proportional to exp(-r/0.36935)*erfc((r-0.51523)/0.36823) with norm 6.826
       Charge density: gaussian nuclear width 0.478731 with net site charge 0.826
       Polarizability: cuspless exponential with width 0.32 and norm 3.73
       Hard sphere radius: 2.57003 bohrs
       Positions in reference frame:
         [ +0.000000 +0.000000 +0.000000 ]
     Initializing site 'H'
       Electron density: proportional to exp(-r/0.34641)*erfc((r-0)/0.390882) with norm 0.587
       Charge density: gaussian nuclear width 0.377945 with net site charge -0.413
       Polarizability: cuspless exponential with width 0.39 and norm 3.3
       Positions in reference frame:
         [ +0.000000 -1.441945 +1.122523 ]
         [ +0.000000 +1.441945 +1.122523 ]
     Net charge: 0   dipole magnitude: 0.927204
     Initializing spherical shell mfKernel with radius 2.61727 Bohr
     deltaS corrections:
       site 'O': -7.54299
       site 'H': -6.83917
   Initializing fluid molecule 'Na+'
     Initializing site 'Na'
       Electron density: proportional to exp(-r/0.19682)*erfc((r-0.71491)/0.41314) with norm 8.1383
       Charge density: gaussian nuclear width 0.365347 with net site charge -1
       Hard sphere radius: 1.86327 bohrs
       Positions in reference frame:
         [ +0.000000 +0.000000 +0.000000 ]
     Net charge: -1   dipole magnitude: 0
     Initializing gaussian mfKernel with width: 1.55004 Bohr
     deltaS corrections:
       site 'Na': -22.3555
   Initializing fluid molecule 'F-'
     Initializing site 'F'
       Electron density: proportional to exp(-r/0.38886)*erfc((r-0)/0.438782) with norm 8
       Charge density: gaussian nuclear width 0.374796 with net site charge 1
       Hard sphere radius: 2.39995 bohrs
       Positions in reference frame:
         [ +0.000000 +0.000000 +0.000000 ]
     Net charge: 1   dipole magnitude: 0
     Initializing gaussian mfKernel with width: 1.59012 Bohr
     deltaS corrections:
       site 'F': -9.04335

Correction to mu due to finite nuclear width = -0.010233
   Cavity determined by nc: 0.00142 and sigma: 0.707107
   Nonlocal vdW cavity from gaussian model electron density with norm = 8 and sigma = 0.993594 bohr
   Charge asymmetry in cavity with sensitivity pCavity = 36.5 e-bohr/Eh
   Electrostatic cavity expanded by eta = 1.46 bohrs
   Weighted density cavitation model constrained by Nbulk: 0.0049383 bohr^-3, Pvap: 3.14029 kPa, Rvdw: 2.61727 bohr and sigmaBulk: 4.62e-05 Eh/bohr^2 at T: 298 K.
   Weighted density dispersion model using vdW pair potentials with single solvent site with sqrtC6eff: 0.77 SI.


---- Citations for features of the code used in this run ----

   Software package:
      R. Sundararaman, K. Letchworth-Weaver, K.A. Schwarz, D. Gunceler, Y. Ozhabes and T.A. Arias, 'JDFTx: software for joint density-functional theory', SoftwareX 6, 278 (2017)

   gga-PBE exchange-correlation functional:
      J.P. Perdew, K. Burke and M. Ernzerhof, Phys. Rev. Lett. 77, 3865 (1996)

   Pseudopotentials:
      KF Garrity, JW Bennett, KM Rabe and D Vanderbilt, Comput. Mater. Sci. 81, 446 (2014)

   DFT-D3 dispersion correction:
      S. Grimme, J. Antony, S. Ehrlich and H. Krieg, J. Chem. Phys. 132, 154104 (2010)

   DFT-D2 dispersion correction:
      S. Grimme, J. Comput. Chem. 27, 1787 (2006)

   Charge-asymmetric nonlocally-determined local-electric (CANDLE) solvation model:
      R. Sundararaman and W.A. Goddard III, J. Chem. Phys. 142, 064107 (2015)

   Total energy minimization with Auxiliary Hamiltonian:
      C. Freysoldt, S. Boeck, and J. Neugebauer, Phys. Rev. B 79, 241103(R) (2009)

   Grand-canonical (fixed-potential) DFT:
      R. Sundararaman, W. A. Goddard III and T. A. Arias, J. Chem. Phys. 146, 114104 (2017)

   Linear-tetrahedron sampling for density of states:
      G. Lehmann and M. Taut, Phys. status solidi (b) 54, 469 (1972)

This list may not be complete. Please suggest additional citations or
report any other bugs at https://github.com/shankar1729/jdftx/issues

Initialization completed successfully at t[s]:   3695.32


Computing DFT-D3 correction:
# coordination-number C 3.303 3.326 3.338 3.335 3.316 3.291 3.326 3.565 3.332 3.316 3.303 3.327 3.304 3.304 3.326 3.577 3.268 3.304 3.323 3.338 3.332 3.304 3.304 3.332 3.338 3.323 3.303 3.268 3.565 3.326 3.304 3.304 3.326 3.303 3.316 3.332 3.578 3.328 3.292 3.316 3.335 3.338 3.326 3.303
# coordination-number N 3.175 3.177 3.175 3.176
# coordination-number Ti 5.334
# diagonal-C6 C 24.26 24.02 23.89 23.92 24.12 24.36 24.02 20.72 23.96 24.12 24.25 24.01 24.24 24.25 24.02 20.56 24.56 24.25 24.05 23.89 23.96 24.24 24.24 23.96 23.89 24.05 24.25 24.57 20.71 24.02 24.25 24.24 24.01 24.25 24.12 23.96 20.54 24.00 24.36 24.12 23.92 23.89 24.02 24.25
# diagonal-C6 N 15.60 15.60 15.60 15.60
# diagonal-C6 Ti 321.59
EvdW_6 =   -0.036023
EvdW_8 =   -0.029683
Fluid solver invoked on fresh (random / LCAO) wavefunctions
Running a vacuum solve first:

-------- Initial electronic minimization -----------
	FillingsUpdate:  mu: -0.171736806  nElectrons: 208.000000  magneticMoment: [ Abs: 0.54649  Tot: -0.48174 ]
ElecMinimize: Iter:   0  G: -316.334678024910431  |grad|_K:  1.428e-04  alpha:  1.000e+00
	FillingsUpdate:  mu: -0.148869950  nElectrons: 208.000000  magneticMoment: [ Abs: 0.25424  Tot: -0.12979 ]
	SubspaceRotationAdjust: set factor to 0.561
ElecMinimize: Iter:   1  G: -318.840854268994974  |grad|_K:  1.448e-04  alpha:  6.527e-01  linmin:  4.231e-04  t[s]:   3860.21
	FillingsUpdate:  mu: -0.048218004  nElectrons: 208.000000  magneticMoment: [ Abs: 1.29686  Tot: -1.22456 ]
	SubspaceRotationAdjust: set factor to 0.231
ElecMinimize: Iter:   2  G: -318.993741424642906  |grad|_K:  7.616e-05  alpha:  8.309e-02  linmin:  8.997e-03  t[s]:   3959.22
ElecMinimize: 	Predicted alpha/alphaT>3.000000, increasing alphaT to 2.492714e-01.
	FillingsUpdate:  mu: -0.038791856  nElectrons: 208.000000  magneticMoment: [ Abs: 1.16312  Tot: -0.99784 ]
	SubspaceRotationAdjust: set factor to 0.278
ElecMinimize: Iter:   3  G: -319.172825259033687  |grad|_K:  2.882e-05  alpha:  3.136e-01  linmin: -6.435e-04  t[s]:   4082.99
	FillingsUpdate:  mu: -0.067880163  nElectrons: 208.000000  magneticMoment: [ Abs: 1.14478  Tot: -0.96232 ]
	SubspaceRotationAdjust: set factor to 0.264
ElecMinimize: Iter:   4  G: -319.273411475151363  |grad|_K:  1.307e-05  alpha:  5.947e-01  linmin:  1.601e-04  t[s]:   4181.72
	FillingsUpdate:  mu: -0.054245542  nElectrons: 208.000000  magneticMoment: [ Abs: 1.23232  Tot: -1.00790 ]
	SubspaceRotationAdjust: set factor to 0.223
ElecMinimize: Iter:   5  G: -319.293526427393601  |grad|_K:  7.335e-06  alpha:  6.174e-01  linmin: -1.963e-04  t[s]:   4280.49
	FillingsUpdate:  mu: -0.065116675  nElectrons: 208.000000  magneticMoment: [ Abs: 1.24790  Tot: -1.00486 ]
	SubspaceRotationAdjust: set factor to 0.201
ElecMinimize: Iter:   6  G: -319.299969075552610  |grad|_K:  5.770e-06  alpha:  5.968e-01  linmin:  4.270e-06  t[s]:   4379.27
	FillingsUpdate:  mu: -0.057431196  nElectrons: 208.000000  magneticMoment: [ Abs: 1.31110  Tot: -1.05566 ]
	SubspaceRotationAdjust: set factor to 0.205
ElecMinimize: Iter:   7  G: -319.303448842276850  |grad|_K:  3.579e-06  alpha:  5.352e-01  linmin:  6.244e-05  t[s]:   4478.61
	FillingsUpdate:  mu: -0.058060868  nElectrons: 208.000000  magneticMoment: [ Abs: 1.38430  Tot: -1.12860 ]
	SubspaceRotationAdjust: set factor to 0.256
ElecMinimize: Iter:   8  G: -319.305252559387952  |grad|_K:  2.652e-06  alpha:  7.426e-01  linmin: -1.084e-05  t[s]:   4577.71
	FillingsUpdate:  mu: -0.057798452  nElectrons: 208.000000  magneticMoment: [ Abs: 1.54495  Tot: -1.30155 ]
	SubspaceRotationAdjust: set factor to 0.291
ElecMinimize: Iter:   9  G: -319.306880244102615  |grad|_K:  4.022e-06  alpha:  1.217e+00  linmin:  8.092e-05  t[s]:   4676.70
	FillingsUpdate:  mu: -0.058304050  nElectrons: 208.000000  magneticMoment: [ Abs: 1.56662  Tot: -1.32705 ]
	SubspaceRotationAdjust: set factor to 0.372
ElecMinimize: Iter:  10  G: -319.307150449051562  |grad|_K:  3.983e-06  alpha:  7.308e-02  linmin: -7.546e-04  t[s]:   4775.85
ElecMinimize: 	Predicted alpha/alphaT>3.000000, increasing alphaT to 2.192385e-01.
	FillingsUpdate:  mu: -0.077879871  nElectrons: 208.000000  magneticMoment: [ Abs: 1.61350  Tot: -1.37643 ]
	SubspaceRotationAdjust: set factor to 0.236
ElecMinimize: Iter:  11  G: -319.308181174983417  |grad|_K:  9.582e-06  alpha:  3.364e-01  linmin:  1.683e-03  t[s]:   4900.79
ElecMinimize: 	Bad step direction: g.d > 0.
ElecMinimize: 	Undoing step.
ElecMinimize: 	Step failed: resetting search direction.
	FillingsUpdate:  mu: -0.077879871  nElectrons: 208.000000  magneticMoment: [ Abs: 1.61350  Tot: -1.37643 ]
	SubspaceRotationAdjust: set factor to 0.168
ElecMinimize: Iter:  12  G: -319.308181174983531  |grad|_K:  8.085e-06  alpha:  0.000e+00
	FillingsUpdate:  mu: -0.061349669  nElectrons: 208.000000  magneticMoment: [ Abs: 1.69131  Tot: -1.44367 ]
	SubspaceRotationAdjust: set factor to 0.0833
	SubspaceRotationAdjust: resetting CG because factor has changed by 0.0832878
ElecMinimize: 	State modified externally: resetting search direction.
ElecMinimize: Iter:  13  G: -319.310070466792752  |grad|_K:  2.536e-06  alpha:  1.750e-01
ElecMinimize: 	Predicted alpha/alphaT>3.000000, increasing alphaT to 5.250932e-01.
	FillingsUpdate:  mu: -0.067374243  nElectrons: 208.000000  magneticMoment: [ Abs: 1.67651  Tot: -1.43101 ]
	SubspaceRotationAdjust: set factor to 0.195
ElecMinimize: Iter:  14  G: -319.310725349058544  |grad|_K:  2.075e-06  alpha:  5.248e-01  linmin:  1.281e-04  t[s]:   5255.16
	FillingsUpdate:  mu: -0.064331337  nElectrons: 208.000000  magneticMoment: [ Abs: 1.68265  Tot: -1.43516 ]
	SubspaceRotationAdjust: set factor to 0.215
ElecMinimize: Iter:  15  G: -319.311357640677784  |grad|_K:  1.778e-06  alpha:  7.606e-01  linmin: -4.633e-05  t[s]:   5354.13
	FillingsUpdate:  mu: -0.070214637  nElectrons: 208.000000  magneticMoment: [ Abs: 1.70321  Tot: -1.45193 ]
	SubspaceRotationAdjust: set factor to 0.253
ElecMinimize: Iter:  16  G: -319.312258700604616  |grad|_K:  2.067e-06  alpha:  1.569e+00  linmin:  5.225e-04  t[s]:   5453.43
	FillingsUpdate:  mu: -0.067850529  nElectrons: 208.000000  magneticMoment: [ Abs: 1.73350  Tot: -1.48098 ]
	SubspaceRotationAdjust: set factor to 0.282
ElecMinimize: Iter:  17  G: -319.312564003386683  |grad|_K:  1.536e-06  alpha:  4.575e-01  linmin: -6.811e-05  t[s]:   5553.41
	FillingsUpdate:  mu: -0.070463865  nElectrons: 208.000000  magneticMoment: [ Abs: 1.74813  Tot: -1.49533 ]
	SubspaceRotationAdjust: set factor to 0.291
ElecMinimize: Iter:  18  G: -319.312829202604860  |grad|_K:  1.457e-06  alpha:  5.770e-01  linmin:  1.342e-04  t[s]:   5652.07
	FillingsUpdate:  mu: -0.068218120  nElectrons: 208.000000  magneticMoment: [ Abs: 1.76836  Tot: -1.50895 ]
	SubspaceRotationAdjust: set factor to 0.282
ElecMinimize: Iter:  19  G: -319.312964918087005  |grad|_K:  1.113e-06  alpha:  3.604e-01  linmin:  5.175e-06  t[s]:   5749.38
	FillingsUpdate:  mu: -0.069204837  nElectrons: 208.000000  magneticMoment: [ Abs: 1.77455  Tot: -1.50999 ]
	SubspaceRotationAdjust: set factor to 0.316
ElecMinimize: Iter:  20  G: -319.313088043330424  |grad|_K:  9.582e-07  alpha:  5.166e-01  linmin:  3.490e-05  t[s]:   5846.76
	FillingsUpdate:  mu: -0.068861717  nElectrons: 208.000000  magneticMoment: [ Abs: 1.78094  Tot: -1.50948 ]
	SubspaceRotationAdjust: set factor to 0.424
ElecMinimize: Iter:  21  G: -319.313173708874501  |grad|_K:  7.431e-07  alpha:  4.891e-01  linmin:  4.077e-06  t[s]:   5943.99
	FillingsUpdate:  mu: -0.068109877  nElectrons: 208.000000  magneticMoment: [ Abs: 1.78393  Tot: -1.50614 ]
	SubspaceRotationAdjust: set factor to 0.417
ElecMinimize: Iter:  22  G: -319.313228752747420  |grad|_K:  6.981e-07  alpha:  5.145e-01  linmin:  1.505e-07  t[s]:   6041.36
	FillingsUpdate:  mu: -0.069178643  nElectrons: 208.000000  magneticMoment: [ Abs: 1.77744  Tot: -1.49771 ]
	SubspaceRotationAdjust: set factor to 0.397
ElecMinimize: Iter:  23  G: -319.313259329860273  |grad|_K:  6.324e-07  alpha:  3.183e-01  linmin: -2.742e-05  t[s]:   6138.44
	FillingsUpdate:  mu: -0.068102620  nElectrons: 208.000000  magneticMoment: [ Abs: 1.77721  Tot: -1.49401 ]
	SubspaceRotationAdjust: set factor to 0.461
ElecMinimize: Iter:  24  G: -319.313281408255648  |grad|_K:  5.070e-07  alpha:  2.842e-01  linmin: -2.173e-05  t[s]:   6235.47
	FillingsUpdate:  mu: -0.068269495  nElectrons: 208.000000  magneticMoment: [ Abs: 1.77050  Tot: -1.48554 ]
	SubspaceRotationAdjust: set factor to 0.537
ElecMinimize: Iter:  25  G: -319.313307565753121  |grad|_K:  4.590e-07  alpha:  5.219e-01  linmin: -3.722e-06  t[s]:   6332.42
	FillingsUpdate:  mu: -0.068097347  nElectrons: 208.000000  magneticMoment: [ Abs: 1.76760  Tot: -1.48258 ]
	SubspaceRotationAdjust: set factor to 0.699
	SubspaceRotationAdjust: resetting CG because factor has changed by 8.38809
ElecMinimize: 	State modified externally: resetting search direction.
ElecMinimize: Iter:  26  G: -319.313325496489085  |grad|_K:  3.818e-07  alpha:  4.383e-01
	FillingsUpdate:  mu: -0.067278834  nElectrons: 208.000000  magneticMoment: [ Abs: 1.77313  Tot: -1.49042 ]
	SubspaceRotationAdjust: set factor to 0.417
ElecMinimize: Iter:  27  G: -319.313344964843111  |grad|_K:  6.233e-07  alpha:  6.827e-01  linmin: -8.303e-05  t[s]:   6582.92
	FillingsUpdate:  mu: -0.068316080  nElectrons: 208.000000  magneticMoment: [ Abs: 1.76973  Tot: -1.48972 ]
	SubspaceRotationAdjust: set factor to 0.252
ElecMinimize: Iter:  28  G: -319.313353068548963  |grad|_K:  2.730e-07  alpha:  1.032e-01  linmin: -5.965e-05  t[s]:   6679.63
ElecMinimize: 	Predicted alpha/alphaT>3.000000, increasing alphaT to 3.095607e-01.
	FillingsUpdate:  mu: -0.068510220  nElectrons: 208.000000  magneticMoment: [ Abs: 1.76847  Tot: -1.49028 ]
	SubspaceRotationAdjust: set factor to 0.325
ElecMinimize: Iter:  29  G: -319.313359594217957  |grad|_K:  1.785e-07  alpha:  4.422e-01  linmin: -2.915e-06  t[s]:   6800.87
	FillingsUpdate:  mu: -0.068010627  nElectrons: 208.000000  magneticMoment: [ Abs: 1.76977  Tot: -1.49173 ]
	SubspaceRotationAdjust: set factor to 0.251
ElecMinimize: Iter:  30  G: -319.313361731636064  |grad|_K:  1.713e-07  alpha:  3.459e-01  linmin: -8.581e-06  t[s]:   6897.68
	FillingsUpdate:  mu: -0.068250838  nElectrons: 208.000000  magneticMoment: [ Abs: 1.76837  Tot: -1.49128 ]
	SubspaceRotationAdjust: set factor to 0.261
ElecMinimize: Iter:  31  G: -319.313363877244569  |grad|_K:  9.525e-08  alpha:  3.766e-01  linmin:  7.883e-07  t[s]:   6994.46
	FillingsUpdate:  mu: -0.068279459  nElectrons: 208.000000  magneticMoment: [ Abs: 1.76761  Tot: -1.49094 ]
	SubspaceRotationAdjust: set factor to 0.296
ElecMinimize: Iter:  32  G: -319.313365041285635  |grad|_K:  7.366e-08  alpha:  6.614e-01  linmin:  7.227e-06  t[s]:   7091.08
	FillingsUpdate:  mu: -0.068102930  nElectrons: 208.000000  magneticMoment: [ Abs: 1.76781  Tot: -1.49108 ]
	SubspaceRotationAdjust: set factor to 0.25
ElecMinimize: Iter:  33  G: -319.313365443483690  |grad|_K:  6.293e-08  alpha:  3.823e-01  linmin:  2.956e-06  t[s]:   7188.29
	FillingsUpdate:  mu: -0.068245781  nElectrons: 208.000000  magneticMoment: [ Abs: 1.76702  Tot: -1.49049 ]
	SubspaceRotationAdjust: set factor to 0.179
ElecMinimize: Iter:  34  G: -319.313365702527392  |grad|_K:  4.574e-08  alpha:  3.370e-01  linmin:  6.820e-06  t[s]:   7284.96
	FillingsUpdate:  mu: -0.068207224  nElectrons: 208.000000  magneticMoment: [ Abs: 1.76686  Tot: -1.49027 ]
	SubspaceRotationAdjust: set factor to 0.21
ElecMinimize: Iter:  35  G: -319.313366005380658  |grad|_K:  3.804e-08  alpha:  7.489e-01  linmin:  8.830e-06  t[s]:   7381.95
	FillingsUpdate:  mu: -0.068116660  nElectrons: 208.000000  magneticMoment: [ Abs: 1.76703  Tot: -1.49035 ]
	SubspaceRotationAdjust: set factor to 0.184
ElecMinimize: Iter:  36  G: -319.313366161129068  |grad|_K:  3.001e-08  alpha:  5.560e-01  linmin:  9.832e-06  t[s]:   7478.44
	FillingsUpdate:  mu: -0.068198636  nElectrons: 208.000000  magneticMoment: [ Abs: 1.76674  Tot: -1.49014 ]
	SubspaceRotationAdjust: set factor to 0.143
ElecMinimize: Iter:  37  G: -319.313366235735486  |grad|_K:  2.412e-08  alpha:  4.290e-01  linmin:  7.025e-06  t[s]:   7574.99
	FillingsUpdate:  mu: -0.068170353  nElectrons: 208.000000  magneticMoment: [ Abs: 1.76681  Tot: -1.49020 ]
	SubspaceRotationAdjust: set factor to 0.179
ElecMinimize: Iter:  38  G: -319.313366294254138  |grad|_K:  1.485e-08  alpha:  5.225e-01  linmin:  1.166e-05  t[s]:   7672.02
ElecMinimize: Converged (|Delta G|<1.000000e-07 for 2 iters).
Setting wave functions to eigenvectors of Hamiltonian
Converging empty states (this may take a while): |deigs|: 7.865e-03
Vacuum energy after initial minimize, F = -319.313366294254138

Shifting auxilliary hamiltonian by -0.077330 to set nElectrons=208.000000

-------- Electronic minimization -----------
	Linear fluid (dielectric constant: 78.4, screening length: 8.12261 Bohr) occupying 0.740972 of unit cell:	Completed after 20 iterations at t[s]:   8123.28
	FillingsUpdate:  mu: -0.145500000  nElectrons: 208.000000  magneticMoment: [ Abs: 1.76747  Tot: -1.49084 ]
ElecMinimize: Iter:   0  G: -319.309419160793368  |grad|_K:  9.073e-06  alpha:  1.000e+00
	Linear fluid (dielectric constant: 78.4, screening length: 8.12261 Bohr) occupying 0.745285 of unit cell:	Completed after 20 iterations at t[s]:   8220.43
	Linear fluid (dielectric constant: 78.4, screening length: 8.12261 Bohr) occupying 0.741263 of unit cell:	Completed after 19 iterations at t[s]:   8262.71
	FillingsUpdate:  mu: -0.145500000  nElectrons: 207.854530  magneticMoment: [ Abs: 1.66580  Tot: -1.36773 ]
	SubspaceRotationAdjust: set factor to 0.121
ElecMinimize: Iter:   1  G: -319.312303910447952  |grad|_K:  5.753e-06  alpha:  1.386e-01  linmin: -1.162e-02  t[s]:   8305.26
	Linear fluid (dielectric constant: 78.4, screening length: 8.12261 Bohr) occupying 0.741727 of unit cell:	Completed after 13 iterations at t[s]:   8349.02
ElecMinimize: 	Predicted alpha/alphaT>3.000000, increasing alphaT to 4.157310e-01.
	Linear fluid (dielectric constant: 78.4, screening length: 8.12261 Bohr) occupying 0.742716 of unit cell:	Completed after 15 iterations at t[s]:   8388.97
	Linear fluid (dielectric constant: 78.4, screening length: 8.12261 Bohr) occupying 0.743665 of unit cell:	Completed after 15 iterations at t[s]:   8429.39
	FillingsUpdate:  mu: -0.145500000  nElectrons: 207.404900  magneticMoment: [ Abs: 1.36781  Tot: -0.95663 ]
	SubspaceRotationAdjust: set factor to 0.0691
ElecMinimize: Iter:   2  G: -319.316528726516651  |grad|_K:  1.573e-05  alpha:  6.391e-01  linmin:  6.073e-03  t[s]:   8471.90
	Linear fluid (dielectric constant: 78.4, screening length: 8.12261 Bohr) occupying 0.751087 of unit cell:	Completed after 19 iterations at t[s]:   8519.27
	Linear fluid (dielectric constant: 78.4, screening length: 8.12261 Bohr) occupying 0.747268 of unit cell:	Completed after 17 iterations at t[s]:   8560.75
ElecMinimize: 	Step increased G by 4.165849e-03, reducing alpha to 1.071388e-02.
	Linear fluid (dielectric constant: 78.4, screening length: 8.12261 Bohr) occupying 0.744056 of unit cell:	Completed after 17 iterations at t[s]:   8641.49
	FillingsUpdate:  mu: -0.145500000  nElectrons: 207.343975  magneticMoment: [ Abs: 1.32607  Tot: -0.89675 ]
	SubspaceRotationAdjust: set factor to 0.0423
ElecMinimize: Iter:   3  G: -319.316613459108794  |grad|_K:  1.394e-05  alpha:  1.071e-02  linmin: -1.441e-03  t[s]:   8684.21
	Linear fluid (dielectric constant: 78.4, screening length: 8.12261 Bohr) occupying 0.744406 of unit cell:	Completed after 9 iterations at t[s]:   8725.16
ElecMinimize: 	Predicted alpha/alphaT>3.000000, increasing alphaT to 3.214164e-02.
	Linear fluid (dielectric constant: 78.4, screening length: 8.12261 Bohr) occupying 0.745120 of unit cell:	Completed after 12 iterations at t[s]:   8763.37
ElecMinimize: 	Wrong curvature in test step, increasing alphaT to 9.642493e-02.
	Linear fluid (dielectric constant: 78.4, screening length: 8.12261 Bohr) occupying 0.745120 of unit cell:	Completed after 0 iterations at t[s]:   8785.15
	FillingsUpdate:  mu: -0.145500000  nElectrons: 207.216066  magneticMoment: [ Abs: 1.24478  Tot: -0.77039 ]
	SubspaceRotationAdjust: set factor to 0.0279
ElecMinimize: Iter:   4  G: -319.319495483635762  |grad|_K:  1.303e-05  alpha: -9.890e-01  linmin: -9.538e-03  t[s]:   8827.56
	Linear fluid (dielectric constant: 78.4, screening length: 8.12261 Bohr) occupying 0.752535 of unit cell:	Completed after 22 iterations at t[s]:   8876.20
	Linear fluid (dielectric constant: 78.4, screening length: 8.12261 Bohr) occupying 0.747727 of unit cell:	Completed after 20 iterations at t[s]:   8919.53
	FillingsUpdate:  mu: -0.145500000  nElectrons: 207.032924  magneticMoment: [ Abs: 1.17083  Tot: -0.59031 ]
	SubspaceRotationAdjust: set factor to 0.0326
ElecMinimize: Iter:   5  G: -319.336939293742432  |grad|_K:  8.891e-06  alpha:  1.424e-01  linmin: -6.186e-03  t[s]:   8961.95
	Linear fluid (dielectric constant: 78.4, screening length: 8.12261 Bohr) occupying 0.748362 of unit cell:	Completed after 17 iterations at t[s]:   9007.65
	Linear fluid (dielectric constant: 78.4, screening length: 8.12261 Bohr) occupying 0.748460 of unit cell:	Completed after 12 iterations at t[s]:   9045.63
	FillingsUpdate:  mu: -0.145500000  nElectrons: 207.090514  magneticMoment: [ Abs: 1.24270  Tot: -0.65372 ]
	SubspaceRotationAdjust: set factor to 0.032
ElecMinimize: Iter:   6  G: -319.342056760401249  |grad|_K:  9.222e-06  alpha:  1.679e-01  linmin:  1.168e-04  t[s]:   9088.26
	Linear fluid (dielectric constant: 78.4, screening length: 8.12261 Bohr) occupying 0.749134 of unit cell:	Completed after 17 iterations at t[s]:   9134.20
	Linear fluid (dielectric constant: 78.4, screening length: 8.12261 Bohr) occupying 0.748851 of unit cell:	Completed after 15 iterations at t[s]:   9174.55
	FillingsUpdate:  mu: -0.145500000  nElectrons: 207.125722  magneticMoment: [ Abs: 1.28513  Tot: -0.69847 ]
	SubspaceRotationAdjust: set factor to 0.0352
ElecMinimize: Iter:   7  G: -319.343534742328472  |grad|_K:  9.890e-06  alpha:  9.377e-02  linmin: -1.672e-05  t[s]:   9216.62
	Linear fluid (dielectric constant: 78.4, screening length: 8.12261 Bohr) occupying 0.749257 of unit cell:	Completed after 15 iterations at t[s]:   9261.30
	Linear fluid (dielectric constant: 78.4, screening length: 8.12261 Bohr) occupying 0.749224 of unit cell:	Completed after 6 iterations at t[s]:   9295.68
	FillingsUpdate:  mu: -0.145500000  nElectrons: 207.142388  magneticMoment: [ Abs: 1.31229  Tot: -0.73694 ]
	SubspaceRotationAdjust: set factor to 0.0413
ElecMinimize: Iter:   8  G: -319.345163696399254  |grad|_K:  9.234e-06  alpha:  8.573e-02  linmin: -1.558e-04  t[s]:   9338.15
	Linear fluid (dielectric constant: 78.4, screening length: 8.12261 Bohr) occupying 0.749501 of unit cell:	Completed after 9 iterations at t[s]:   9379.42
	Linear fluid (dielectric constant: 78.4, screening length: 8.12261 Bohr) occupying 0.749477 of unit cell:	Completed after 4 iterations at t[s]:   9413.10
	FillingsUpdate:  mu: -0.145500000  nElectrons: 207.127585  magneticMoment: [ Abs: 1.31015  Tot: -0.75488 ]
	SubspaceRotationAdjust: set factor to 0.0416
ElecMinimize: Iter:   9  G: -319.346481305072757  |grad|_K:  8.050e-06  alpha:  7.790e-02  linmin: -1.335e-04  t[s]:   9455.45
	Linear fluid (dielectric constant: 78.4, screening length: 8.12261 Bohr) occupying 0.749630 of unit cell:	Completed after 12 iterations at t[s]:   9498.18
	Linear fluid (dielectric constant: 78.4, screening length: 8.12261 Bohr) occupying 0.749623 of unit cell:	Completed after 3 iterations at t[s]:   9531.01
	FillingsUpdate:  mu: -0.145500000  nElectrons: 207.090468  magneticMoment: [ Abs: 1.28583  Tot: -0.75333 ]
	SubspaceRotationAdjust: set factor to 0.0608
ElecMinimize: Iter:  10  G: -319.347425057527005  |grad|_K:  7.081e-06  alpha:  7.387e-02  linmin: -5.391e-05  t[s]:   9573.33
	Linear fluid (dielectric constant: 78.4, screening length: 8.12261 Bohr) occupying 0.749700 of unit cell:	Completed after 14 iterations at t[s]:   9617.44
	Linear fluid (dielectric constant: 78.4, screening length: 8.12261 Bohr) occupying 0.749708 of unit cell:	Completed after 7 iterations at t[s]:   9652.82
	FillingsUpdate:  mu: -0.145500000  nElectrons: 207.040286  magneticMoment: [ Abs: 1.24911  Tot: -0.74124 ]
	SubspaceRotationAdjust: set factor to 0.0663
ElecMinimize: Iter:  11  G: -319.348220643525110  |grad|_K:  7.133e-06  alpha:  8.119e-02  linmin:  4.213e-07  t[s]:   9695.26
	Linear fluid (dielectric constant: 78.4, screening length: 8.12261 Bohr) occupying 0.749758 of unit cell:	Completed after 15 iterations at t[s]:   9739.66
	Linear fluid (dielectric constant: 78.4, screening length: 8.12261 Bohr) occupying 0.749757 of unit cell:	Completed after 1 iterations at t[s]:   9771.26
	FillingsUpdate:  mu: -0.145500000  nElectrons: 206.984245  magneticMoment: [ Abs: 1.20746  Tot: -0.72722 ]
	SubspaceRotationAdjust: set factor to 0.0682
ElecMinimize: Iter:  12  G: -319.349014158026193  |grad|_K:  7.781e-06  alpha:  8.037e-02  linmin: -2.187e-05  t[s]:   9813.76
	Linear fluid (dielectric constant: 78.4, screening length: 8.12261 Bohr) occupying 0.749779 of unit cell:	Completed after 15 iterations at t[s]:   9858.30
	Linear fluid (dielectric constant: 78.4, screening length: 8.12261 Bohr) occupying 0.749779 of unit cell:	Completed after 3 iterations at t[s]:   9890.93
	FillingsUpdate:  mu: -0.145500000  nElectrons: 206.934470  magneticMoment: [ Abs: 1.17459  Tot: -0.72753 ]
	SubspaceRotationAdjust: set factor to 0.0741
ElecMinimize: Iter:  13  G: -319.349989704134259  |grad|_K:  8.152e-06  alpha:  8.264e-02  linmin: -1.087e-04  t[s]:   9933.26
	Linear fluid (dielectric constant: 78.4, screening length: 8.12261 Bohr) occupying 0.749767 of unit cell:	Completed after 11 iterations at t[s]:   9975.36
	Linear fluid (dielectric constant: 78.4, screening length: 8.12261 Bohr) occupying 0.749770 of unit cell:	Completed after 3 iterations at t[s]:  10008.02
	FillingsUpdate:  mu: -0.145500000  nElectrons: 206.920825  magneticMoment: [ Abs: 1.17374  Tot: -0.75399 ]
	SubspaceRotationAdjust: set factor to 0.0674
ElecMinimize: Iter:  14  G: -319.350909398636475  |grad|_K:  6.934e-06  alpha:  7.014e-02  linmin: -9.015e-05  t[s]:  10050.30
	Linear fluid (dielectric constant: 78.4, screening length: 8.12261 Bohr) occupying 0.749743 of unit cell:	Completed after 12 iterations at t[s]:  10092.94
	Linear fluid (dielectric constant: 78.4, screening length: 8.12261 Bohr) occupying 0.749748 of unit cell:	Completed after 6 iterations at t[s]:  10127.29
	FillingsUpdate:  mu: -0.145500000  nElectrons: 206.938156  magneticMoment: [ Abs: 1.19439  Tot: -0.78882 ]
	SubspaceRotationAdjust: set factor to 0.107
ElecMinimize: Iter:  15  G: -319.351450562661398  |grad|_K:  5.271e-06  alpha:  5.747e-02  linmin: -5.898e-05  t[s]:  10169.82
	Linear fluid (dielectric constant: 78.4, screening length: 8.12261 Bohr) occupying 0.749725 of unit cell:	Completed after 12 iterations at t[s]:  10212.32
	Linear fluid (dielectric constant: 78.4, screening length: 8.12261 Bohr) occupying 0.749720 of unit cell:	Completed after 6 iterations at t[s]:  10246.82
	FillingsUpdate:  mu: -0.145500000  nElectrons: 206.964450  magneticMoment: [ Abs: 1.21880  Tot: -0.82239 ]
	SubspaceRotationAdjust: set factor to 0.117
ElecMinimize: Iter:  16  G: -319.351834773323105  |grad|_K:  5.241e-06  alpha:  7.059e-02  linmin: -1.028e-04  t[s]:  10289.13
	Linear fluid (dielectric constant: 78.4, screening length: 8.12261 Bohr) occupying 0.749681 of unit cell:	Completed after 13 iterations at t[s]:  10332.18
	Linear fluid (dielectric constant: 78.4, screening length: 8.12261 Bohr) occupying 0.749669 of unit cell:	Completed after 8 iterations at t[s]:  10367.80
	FillingsUpdate:  mu: -0.145500000  nElectrons: 206.998772  magneticMoment: [ Abs: 1.24452  Tot: -0.85806 ]
	SubspaceRotationAdjust: set factor to 0.132
ElecMinimize: Iter:  17  G: -319.352333670409280  |grad|_K:  6.674e-06  alpha:  9.158e-02  linmin: -1.526e-04  t[s]:  10410.31
	Linear fluid (dielectric constant: 78.4, screening length: 8.12261 Bohr) occupying 0.749571 of unit cell:	Completed after 12 iterations at t[s]:  10452.96
	Linear fluid (dielectric constant: 78.4, screening length: 8.12261 Bohr) occupying 0.749563 of unit cell:	Completed after 3 iterations at t[s]:  10485.48
	FillingsUpdate:  mu: -0.145500000  nElectrons: 207.027886  magneticMoment: [ Abs: 1.25658  Tot: -0.88265 ]
	SubspaceRotationAdjust: set factor to 0.105
ElecMinimize: Iter:  18  G: -319.353206718224669  |grad|_K:  7.983e-06  alpha:  9.813e-02  linmin: -1.081e-04  t[s]:  10527.64
	Linear fluid (dielectric constant: 78.4, screening length: 8.12261 Bohr) occupying 0.749390 of unit cell:	Completed after 11 iterations at t[s]:  10569.52
	Linear fluid (dielectric constant: 78.4, screening length: 8.12261 Bohr) occupying 0.749449 of unit cell:	Completed after 6 iterations at t[s]:  10604.33
	FillingsUpdate:  mu: -0.145500000  nElectrons: 207.023688  magneticMoment: [ Abs: 1.23694  Tot: -0.87020 ]
	SubspaceRotationAdjust: set factor to 0.119
ElecMinimize: Iter:  19  G: -319.354023300329459  |grad|_K:  5.994e-06  alpha:  6.582e-02  linmin: -4.324e-05  t[s]:  10646.60
	Linear fluid (dielectric constant: 78.4, screening length: 8.12261 Bohr) occupying 0.749384 of unit cell:	Completed after 12 iterations at t[s]:  10689.52
	Linear fluid (dielectric constant: 78.4, screening length: 8.12261 Bohr) occupying 0.749383 of unit cell:	Completed after 0 iterations at t[s]:  10720.42
	FillingsUpdate:  mu: -0.145500000  nElectrons: 207.004616  magneticMoment: [ Abs: 1.20760  Tot: -0.84283 ]
	SubspaceRotationAdjust: set factor to 0.153
ElecMinimize: Iter:  20  G: -319.354488589911512  |grad|_K:  4.484e-06  alpha:  6.624e-02  linmin: -8.942e-05  t[s]:  10763.19
	Linear fluid (dielectric constant: 78.4, screening length: 8.12261 Bohr) occupying 0.749350 of unit cell:	Completed after 12 iterations at t[s]:  10805.69
	Linear fluid (dielectric constant: 78.4, screening length: 8.12261 Bohr) occupying 0.749342 of unit cell:	Completed after 6 iterations at t[s]:  10840.42
	FillingsUpdate:  mu: -0.145500000  nElectrons: 206.989620  magneticMoment: [ Abs: 1.18015  Tot: -0.81540 ]
	SubspaceRotationAdjust: set factor to 0.156
ElecMinimize: Iter:  21  G: -319.354815262706211  |grad|_K:  4.797e-06  alpha:  8.211e-02  linmin: -1.052e-04  t[s]:  10882.95
	Linear fluid (dielectric constant: 78.4, screening length: 8.12261 Bohr) occupying 0.749299 of unit cell:	Completed after 8 iterations at t[s]:  10923.32
	Linear fluid (dielectric constant: 78.4, screening length: 8.12261 Bohr) occupying 0.749271 of unit cell:	Completed after 6 iterations at t[s]:  10957.78
	FillingsUpdate:  mu: -0.145500000  nElectrons: 207.005956  magneticMoment: [ Abs: 1.15834  Tot: -0.79132 ]
	SubspaceRotationAdjust: set factor to 0.135
ElecMinimize: Iter:  22  G: -319.355416521966333  |grad|_K:  6.218e-06  alpha:  1.307e-01  linmin: -1.280e-04  t[s]:  10999.84
	Linear fluid (dielectric constant: 78.4, screening length: 8.12261 Bohr) occupying 0.749144 of unit cell:	Completed after 15 iterations at t[s]:  11044.54
	Linear fluid (dielectric constant: 78.4, screening length: 8.12261 Bohr) occupying 0.749192 of unit cell:	Completed after 12 iterations at t[s]:  11083.44
	FillingsUpdate:  mu: -0.145500000  nElectrons: 207.071193  magneticMoment: [ Abs: 1.17313  Tot: -0.80168 ]
	SubspaceRotationAdjust: set factor to 0.202
ElecMinimize: Iter:  23  G: -319.356059729422839  |grad|_K:  4.831e-06  alpha:  8.372e-02  linmin:  2.082e-07  t[s]:  11125.90
	Linear fluid (dielectric constant: 78.4, screening length: 8.12261 Bohr) occupying 0.749145 of unit cell:	Completed after 13 iterations at t[s]:  11169.37
	Linear fluid (dielectric constant: 78.4, screening length: 8.12261 Bohr) occupying 0.749145 of unit cell:	Completed after 0 iterations at t[s]:  11199.80
	FillingsUpdate:  mu: -0.145500000  nElectrons: 207.126282  magneticMoment: [ Abs: 1.19507  Tot: -0.82056 ]
	SubspaceRotationAdjust: set factor to 0.189
ElecMinimize: Iter:  24  G: -319.356439492026766  |grad|_K:  4.178e-06  alpha:  8.385e-02  linmin: -9.406e-05  t[s]:  11242.31
	Linear fluid (dielectric constant: 78.4, screening length: 8.12261 Bohr) occupying 0.749114 of unit cell:	Completed after 10 iterations at t[s]:  11283.64
	Linear fluid (dielectric constant: 78.4, screening length: 8.12261 Bohr) occupying 0.749095 of unit cell:	Completed after 10 iterations at t[s]:  11320.56
	FillingsUpdate:  mu: -0.145500000  nElectrons: 207.172774  magneticMoment: [ Abs: 1.20286  Tot: -0.82533 ]
	SubspaceRotationAdjust: set factor to 0.159
ElecMinimize: Iter:  25  G: -319.356907098265197  |grad|_K:  4.675e-06  alpha:  1.338e-01  linmin: -7.757e-05  t[s]:  11362.88
	Linear fluid (dielectric constant: 78.4, screening length: 8.12261 Bohr) occupying 0.749037 of unit cell:	Completed after 10 iterations at t[s]:  11404.64
	Linear fluid (dielectric constant: 78.4, screening length: 8.12261 Bohr) occupying 0.749049 of unit cell:	Completed after 6 iterations at t[s]:  11439.36
	FillingsUpdate:  mu: -0.145500000  nElectrons: 207.176770  magneticMoment: [ Abs: 1.17541  Tot: -0.79757 ]
	SubspaceRotationAdjust: set factor to 0.224
ElecMinimize: Iter:  26  G: -319.357364370198013  |grad|_K:  3.470e-06  alpha:  1.064e-01  linmin: -1.631e-05  t[s]:  11481.64
	Linear fluid (dielectric constant: 78.4, screening length: 8.12261 Bohr) occupying 0.749026 of unit cell:	Completed after 13 iterations at t[s]:  11524.89
	Linear fluid (dielectric constant: 78.4, screening length: 8.12261 Bohr) occupying 0.749028 of unit cell:	Completed after 5 iterations at t[s]:  11559.05
	FillingsUpdate:  mu: -0.145500000  nElectrons: 207.158790  magneticMoment: [ Abs: 1.14396  Tot: -0.76712 ]
	SubspaceRotationAdjust: set factor to 0.205
ElecMinimize: Iter:  27  G: -319.357590706289557  |grad|_K:  2.820e-06  alpha:  9.627e-02  linmin:  6.105e-05  t[s]:  11601.31
	Linear fluid (dielectric constant: 78.4, screening length: 8.12261 Bohr) occupying 0.749016 of unit cell:	Completed after 8 iterations at t[s]:  11641.58
	Linear fluid (dielectric constant: 78.4, screening length: 8.12261 Bohr) occupying 0.749008 of unit cell:	Completed after 8 iterations at t[s]:  11677.58
	FillingsUpdate:  mu: -0.145500000  nElectrons: 207.148812  magneticMoment: [ Abs: 1.11542  Tot: -0.74362 ]
	SubspaceRotationAdjust: set factor to 0.175
ElecMinimize: Iter:  28  G: -319.357841476527142  |grad|_K:  3.610e-06  alpha:  1.645e-01  linmin: -1.973e-06  t[s]:  11720.13
	Linear fluid (dielectric constant: 78.4, screening length: 8.12261 Bohr) occupying 0.748972 of unit cell:	Completed after 12 iterations at t[s]:  11762.68
	Linear fluid (dielectric constant: 78.4, screening length: 8.12261 Bohr) occupying 0.748984 of unit cell:	Completed after 8 iterations at t[s]:  11798.27
	FillingsUpdate:  mu: -0.145500000  nElectrons: 207.171221  magneticMoment: [ Abs: 1.11428  Tot: -0.75370 ]
	SubspaceRotationAdjust: set factor to 0.293
ElecMinimize: Iter:  29  G: -319.358116602981909  |grad|_K:  2.428e-06  alpha:  1.088e-01  linmin:  2.087e-06  t[s]:  11840.51
	Linear fluid (dielectric constant: 78.4, screening length: 8.12261 Bohr) occupying 0.748976 of unit cell:	Completed after 12 iterations at t[s]:  11883.21
	Linear fluid (dielectric constant: 78.4, screening length: 8.12261 Bohr) occupying 0.748976 of unit cell:	Completed after 0 iterations at t[s]:  11913.40
	FillingsUpdate:  mu: -0.145500000  nElectrons: 207.193441  magneticMoment: [ Abs: 1.12394  Tot: -0.77132 ]
	SubspaceRotationAdjust: set factor to 0.252
ElecMinimize: Iter:  30  G: -319.358239069972512  |grad|_K:  2.156e-06  alpha:  1.071e-01  linmin: -1.656e-05  t[s]:  11956.07
	Linear fluid (dielectric constant: 78.4, screening length: 8.12261 Bohr) occupying 0.748975 of unit cell:	Completed after 7 iterations at t[s]:  11995.55
	Linear fluid (dielectric constant: 78.4, screening length: 8.12261 Bohr) occupying 0.748973 of unit cell:	Completed after 3 iterations at t[s]:  12028.14
	FillingsUpdate:  mu: -0.145500000  nElectrons: 207.200761  magneticMoment: [ Abs: 1.11457  Tot: -0.77410 ]
	SubspaceRotationAdjust: set factor to 0.335
ElecMinimize: Iter:  31  G: -319.358401838758198  |grad|_K:  1.832e-06  alpha:  1.802e-01  linmin:  9.346e-06  t[s]:  12070.44
	Linear fluid (dielectric constant: 78.4, screening length: 8.12261 Bohr) occupying 0.748978 of unit cell:	Completed after 10 iterations at t[s]:  12112.01
	Linear fluid (dielectric constant: 78.4, screening length: 8.12261 Bohr) occupying 0.748976 of unit cell:	Completed after 6 iterations at t[s]:  12146.39
	FillingsUpdate:  mu: -0.145500000  nElectrons: 207.189633  magneticMoment: [ Abs: 1.09560  Tot: -0.76153 ]
	SubspaceRotationAdjust: set factor to 0.283
ElecMinimize: Iter:  32  G: -319.358482768992531  |grad|_K:  1.675e-06  alpha:  1.238e-01  linmin:  2.001e-05  t[s]:  12188.58
	Linear fluid (dielectric constant: 78.4, screening length: 8.12261 Bohr) occupying 0.748982 of unit cell:	Completed after 5 iterations at t[s]:  12227.02
	Linear fluid (dielectric constant: 78.4, screening length: 8.12261 Bohr) occupying 0.748985 of unit cell:	Completed after 3 iterations at t[s]:  12259.39
	FillingsUpdate:  mu: -0.145500000  nElectrons: 207.192706  magneticMoment: [ Abs: 1.08463  Tot: -0.76319 ]
	SubspaceRotationAdjust: set factor to 0.333
ElecMinimize: Iter:  33  G: -319.358590978949849  |grad|_K:  1.329e-06  alpha:  1.993e-01  linmin: -3.547e-06  t[s]:  12301.73
	Linear fluid (dielectric constant: 78.4, screening length: 8.12261 Bohr) occupying 0.748997 of unit cell:	Completed after 8 iterations at t[s]:  12341.81
	Linear fluid (dielectric constant: 78.4, screening length: 8.12261 Bohr) occupying 0.748995 of unit cell:	Completed after 3 iterations at t[s]:  12374.42
	FillingsUpdate:  mu: -0.145500000  nElectrons: 207.198367  magneticMoment: [ Abs: 1.08165  Tot: -0.76860 ]
	SubspaceRotationAdjust: set factor to 0.31
ElecMinimize: Iter:  34  G: -319.358648282939839  |grad|_K:  1.360e-06  alpha:  1.675e-01  linmin: -1.507e-05  t[s]:  12416.90
	Linear fluid (dielectric constant: 78.4, screening length: 8.12261 Bohr) occupying 0.749013 of unit cell:	Completed after 10 iterations at t[s]:  12458.25
	Linear fluid (dielectric constant: 78.4, screening length: 8.12261 Bohr) occupying 0.749007 of unit cell:	Completed after 7 iterations at t[s]:  12493.37
	FillingsUpdate:  mu: -0.145500000  nElectrons: 207.187077  magneticMoment: [ Abs: 1.06533  Tot: -0.75780 ]
	SubspaceRotationAdjust: set factor to 0.278
ElecMinimize: Iter:  35  G: -319.358690235445067  |grad|_K:  9.236e-07  alpha:  1.166e-01  linmin:  2.981e-07  t[s]:  12535.67
	Linear fluid (dielectric constant: 78.4, screening length: 8.12261 Bohr) occupying 0.749017 of unit cell:	Completed after 3 iterations at t[s]:  12572.86
	Linear fluid (dielectric constant: 78.4, screening length: 8.12261 Bohr) occupying 0.749026 of unit cell:	Completed after 3 iterations at t[s]:  12605.39
	FillingsUpdate:  mu: -0.145500000  nElectrons: 207.180149  magneticMoment: [ Abs: 1.05274  Tot: -0.75199 ]
	SubspaceRotationAdjust: set factor to 0.32
ElecMinimize: Iter:  36  G: -319.358728702256030  |grad|_K:  8.672e-07  alpha:  2.329e-01  linmin:  8.013e-06  t[s]:  12647.65
	Linear fluid (dielectric constant: 78.4, screening length: 8.12261 Bohr) occupying 0.749047 of unit cell:	Completed after 7 iterations at t[s]:  12687.35
	Linear fluid (dielectric constant: 78.4, screening length: 8.12261 Bohr) occupying 0.749040 of unit cell:	Completed after 4 iterations at t[s]:  12720.61
	FillingsUpdate:  mu: -0.145500000  nElectrons: 207.183008  magneticMoment: [ Abs: 1.05102  Tot: -0.75580 ]
	SubspaceRotationAdjust: set factor to 0.275
ElecMinimize: Iter:  37  G: -319.358752221653162  |grad|_K:  8.319e-07  alpha:  1.612e-01  linmin:  1.081e-05  t[s]:  12762.80
	Linear fluid (dielectric constant: 78.4, screening length: 8.12261 Bohr) occupying 0.749057 of unit cell:	Completed after 6 iterations at t[s]:  12801.95
	Linear fluid (dielectric constant: 78.4, screening length: 8.12261 Bohr) occupying 0.749058 of unit cell:	Completed after 0 iterations at t[s]:  12832.10
	FillingsUpdate:  mu: -0.145500000  nElectrons: 207.176556  magneticMoment: [ Abs: 1.04097  Tot: -0.75078 ]
	SubspaceRotationAdjust: set factor to 0.263
ElecMinimize: Iter:  38  G: -319.358774256908248  |grad|_K:  6.010e-07  alpha:  1.647e-01  linmin: -1.732e-05  t[s]:  12874.81
	Linear fluid (dielectric constant: 78.4, screening length: 8.12261 Bohr) occupying 0.749068 of unit cell:	Completed after 3 iterations at t[s]:  12911.83
	Linear fluid (dielectric constant: 78.4, screening length: 8.12261 Bohr) occupying 0.749071 of unit cell:	Completed after 2 iterations at t[s]:  12943.78
	FillingsUpdate:  mu: -0.145500000  nElectrons: 207.173940  magneticMoment: [ Abs: 1.03536  Tot: -0.74941 ]
	SubspaceRotationAdjust: set factor to 0.293
ElecMinimize: Iter:  39  G: -319.358789451676444  |grad|_K:  5.046e-07  alpha:  2.152e-01  linmin: -1.299e-05  t[s]:  12986.23
	Linear fluid (dielectric constant: 78.4, screening length: 8.12261 Bohr) occupying 0.749080 of unit cell:	Completed after 6 iterations at t[s]:  13025.29
	Linear fluid (dielectric constant: 78.4, screening length: 8.12261 Bohr) occupying 0.749078 of unit cell:	Completed after 3 iterations at t[s]:  13057.78
	FillingsUpdate:  mu: -0.145500000  nElectrons: 207.176093  magneticMoment: [ Abs: 1.03519  Tot: -0.75232 ]
	SubspaceRotationAdjust: set factor to 0.249
ElecMinimize: Iter:  40  G: -319.358797779278063  |grad|_K:  4.640e-07  alpha:  1.681e-01  linmin:  1.123e-05  t[s]:  13100.26
	Linear fluid (dielectric constant: 78.4, screening length: 8.12261 Bohr) occupying 0.749084 of unit cell:	Completed after 3 iterations at t[s]:  13137.48
	Linear fluid (dielectric constant: 78.4, screening length: 8.12261 Bohr) occupying 0.749084 of unit cell:	Completed after 0 iterations at t[s]:  13167.61
	FillingsUpdate:  mu: -0.145500000  nElectrons: 207.172465  magneticMoment: [ Abs: 1.02986  Tot: -0.74958 ]
	SubspaceRotationAdjust: set factor to 0.255
ElecMinimize: Iter:  41  G: -319.358805241339724  |grad|_K:  3.629e-07  alpha:  1.792e-01  linmin: -2.940e-05  t[s]:  13209.81
	Linear fluid (dielectric constant: 78.4, screening length: 8.12261 Bohr) occupying 0.749087 of unit cell:	Completed after 3 iterations at t[s]:  13247.37
	Linear fluid (dielectric constant: 78.4, screening length: 8.12261 Bohr) occupying 0.749088 of unit cell:	Completed after 0 iterations at t[s]:  13277.48
	FillingsUpdate:  mu: -0.145500000  nElectrons: 207.169818  magneticMoment: [ Abs: 1.02569  Tot: -0.74760 ]
	SubspaceRotationAdjust: set factor to 0.263
ElecMinimize: Iter:  42  G: -319.358810838677982  |grad|_K:  3.154e-07  alpha:  2.145e-01  linmin: -1.362e-04  t[s]:  13319.79
	Linear fluid (dielectric constant: 78.4, screening length: 8.12261 Bohr) occupying 0.749089 of unit cell:	Completed after 3 iterations at t[s]:  13357.06
	Linear fluid (dielectric constant: 78.4, screening length: 8.12261 Bohr) occupying 0.749089 of unit cell:	Completed after 1 iterations at t[s]:  13388.97
	FillingsUpdate:  mu: -0.145500000  nElectrons: 207.170626  magneticMoment: [ Abs: 1.02514  Tot: -0.74868 ]
	SubspaceRotationAdjust: set factor to 0.232
ElecMinimize: Iter:  43  G: -319.358814027960818  |grad|_K:  2.538e-07  alpha:  1.589e-01  linmin:  1.302e-05  t[s]:  13431.12
	Linear fluid (dielectric constant: 78.4, screening length: 8.12261 Bohr) occupying 0.749089 of unit cell:	Completed after 2 iterations at t[s]:  13467.56
	Linear fluid (dielectric constant: 78.4, screening length: 8.12261 Bohr) occupying 0.749089 of unit cell:	Completed after 0 iterations at t[s]:  13497.60
	FillingsUpdate:  mu: -0.145500000  nElectrons: 207.169285  magneticMoment: [ Abs: 1.02255  Tot: -0.74745 ]
	SubspaceRotationAdjust: set factor to 0.262
ElecMinimize: Iter:  44  G: -319.358816632779565  |grad|_K:  2.071e-07  alpha:  2.074e-01  linmin: -1.001e-04  t[s]:  13539.64
	Linear fluid (dielectric constant: 78.4, screening length: 8.12261 Bohr) occupying 0.749089 of unit cell:	Completed after 3 iterations at t[s]:  13576.67
	Linear fluid (dielectric constant: 78.4, screening length: 8.12261 Bohr) occupying 0.749089 of unit cell:	Completed after 0 iterations at t[s]:  13607.18
	FillingsUpdate:  mu: -0.145500000  nElectrons: 207.167965  magneticMoment: [ Abs: 1.02032  Tot: -0.74607 ]
	SubspaceRotationAdjust: set factor to 0.244
ElecMinimize: Iter:  45  G: -319.358818144108341  |grad|_K:  2.351e-07  alpha:  1.782e-01  linmin:  3.409e-06  t[s]:  13649.28
	Linear fluid (dielectric constant: 78.4, screening length: 8.12261 Bohr) occupying 0.749089 of unit cell:	Completed after 3 iterations at t[s]:  13686.94
	Linear fluid (dielectric constant: 78.4, screening length: 8.12261 Bohr) occupying 0.749089 of unit cell:	Completed after 1 iterations at t[s]:  13718.50
	FillingsUpdate:  mu: -0.145500000  nElectrons: 207.169330  magneticMoment: [ Abs: 1.02047  Tot: -0.74723 ]
	SubspaceRotationAdjust: set factor to 0.246
ElecMinimize: Iter:  46  G: -319.358819333683527  |grad|_K:  1.558e-07  alpha:  1.151e-01  linmin:  4.416e-05  t[s]:  13760.70
	Linear fluid (dielectric constant: 78.4, screening length: 8.12261 Bohr) occupying 0.749089 of unit cell:	Completed after 0 iterations at t[s]:  13796.39
	Linear fluid (dielectric constant: 78.4, screening length: 8.12261 Bohr) occupying 0.749088 of unit cell:	Completed after 2 iterations at t[s]:  13828.60
	FillingsUpdate:  mu: -0.145500000  nElectrons: 207.170573  magneticMoment: [ Abs: 1.02036  Tot: -0.74810 ]
	SubspaceRotationAdjust: set factor to 0.262
ElecMinimize: Iter:  47  G: -319.358820337429847  |grad|_K:  1.387e-07  alpha:  2.308e-01  linmin:  2.915e-04  t[s]:  13870.81
	Linear fluid (dielectric constant: 78.4, screening length: 8.12261 Bohr) occupying 0.749088 of unit cell:	Completed after 2 iterations at t[s]:  13907.53
	Linear fluid (dielectric constant: 78.4, screening length: 8.12261 Bohr) occupying 0.749088 of unit cell:	Completed after 0 iterations at t[s]:  13937.67
	FillingsUpdate:  mu: -0.145500000  nElectrons: 207.170343  magneticMoment: [ Abs: 1.01934  Tot: -0.74758 ]
	SubspaceRotationAdjust: set factor to 0.224
ElecMinimize: Iter:  48  G: -319.358820933882214  |grad|_K:  1.323e-07  alpha:  1.648e-01  linmin:  3.538e-04  t[s]:  13979.85
	Linear fluid (dielectric constant: 78.4, screening length: 8.12261 Bohr) occupying 0.749087 of unit cell:	Completed after 3 iterations at t[s]:  14017.43
	Linear fluid (dielectric constant: 78.4, screening length: 8.12261 Bohr) occupying 0.749087 of unit cell:	Completed after 0 iterations at t[s]:  14047.55
	FillingsUpdate:  mu: -0.145500000  nElectrons: 207.171260  magneticMoment: [ Abs: 1.01945  Tot: -0.74820 ]
	SubspaceRotationAdjust: set factor to 0.182
ElecMinimize: Iter:  49  G: -319.358821330682474  |grad|_K:  1.036e-07  alpha:  1.340e-01  linmin: -1.588e-04  t[s]:  14089.77
	Linear fluid (dielectric constant: 78.4, screening length: 8.12261 Bohr) occupying 0.749087 of unit cell:	Completed after 0 iterations at t[s]:  14124.46
	Linear fluid (dielectric constant: 78.4, screening length: 8.12261 Bohr) occupying 0.749086 of unit cell:	Completed after 1 iterations at t[s]:  14155.77
	FillingsUpdate:  mu: -0.145500000  nElectrons: 207.171276  magneticMoment: [ Abs: 1.01864  Tot: -0.74785 ]
	SubspaceRotationAdjust: set factor to 0.186
ElecMinimize: Iter:  50  G: -319.358821763980416  |grad|_K:  8.048e-08  alpha:  2.298e-01  linmin:  4.808e-04  t[s]:  14197.90
	Linear fluid (dielectric constant: 78.4, screening length: 8.12261 Bohr) occupying 0.749086 of unit cell:	Completed after 0 iterations at t[s]:  14232.58
	Linear fluid (dielectric constant: 78.4, screening length: 8.12261 Bohr) occupying 0.749086 of unit cell:	Completed after 0 iterations at t[s]:  14262.77
	FillingsUpdate:  mu: -0.145500000  nElectrons: 207.171373  magneticMoment: [ Abs: 1.01814  Tot: -0.74767 ]
	SubspaceRotationAdjust: set factor to 0.191
ElecMinimize: Iter:  51  G: -319.358822039911786  |grad|_K:  6.820e-08  alpha:  2.478e-01  linmin:  2.918e-07  t[s]:  14304.89
	Linear fluid (dielectric constant: 78.4, screening length: 8.12261 Bohr) occupying 0.749085 of unit cell:	Completed after 1 iterations at t[s]:  14340.96
	Linear fluid (dielectric constant: 78.4, screening length: 8.12261 Bohr) occupying 0.749085 of unit cell:	Completed after 0 iterations at t[s]:  14370.98
	FillingsUpdate:  mu: -0.145500000  nElectrons: 207.171424  magneticMoment: [ Abs: 1.01787  Tot: -0.74756 ]
	SubspaceRotationAdjust: set factor to 0.193
ElecMinimize: Iter:  52  G: -319.358822161651290  |grad|_K:  6.181e-08  alpha:  1.693e-01  linmin: -5.809e-04  t[s]:  14413.43
	Linear fluid (dielectric constant: 78.4, screening length: 8.12261 Bohr) occupying 0.749084 of unit cell:	Completed after 0 iterations at t[s]:  14448.23
	Linear fluid (dielectric constant: 78.4, screening length: 8.12261 Bohr) occupying 0.749084 of unit cell:	Completed after 0 iterations at t[s]:  14478.96
	FillingsUpdate:  mu: -0.145500000  nElectrons: 207.171994  magneticMoment: [ Abs: 1.01804  Tot: -0.74793 ]
	SubspaceRotationAdjust: set factor to 0.231
ElecMinimize: Iter:  53  G: -319.358822328285214  |grad|_K:  5.249e-08  alpha:  2.086e-01  linmin:  1.412e-04  t[s]:  14521.23
	Linear fluid (dielectric constant: 78.4, screening length: 8.12261 Bohr) occupying 0.749083 of unit cell:	Completed after 2 iterations at t[s]:  14558.25
	Linear fluid (dielectric constant: 78.4, screening length: 8.12261 Bohr) occupying 0.749084 of unit cell:	Completed after 0 iterations at t[s]:  14588.56
	FillingsUpdate:  mu: -0.145500000  nElectrons: 207.172307  magneticMoment: [ Abs: 1.01823  Tot: -0.74819 ]
	SubspaceRotationAdjust: set factor to 0.16
ElecMinimize: Iter:  54  G: -319.358822360849615  |grad|_K:  1.035e-07  alpha:  7.433e-02  linmin:  1.551e-03  t[s]:  14630.68
	Linear fluid (dielectric constant: 78.4, screening length: 8.12261 Bohr) occupying 0.749083 of unit cell:	Completed after 0 iterations at t[s]:  14665.29
	Linear fluid (dielectric constant: 78.4, screening length: 8.12261 Bohr) occupying 0.749084 of unit cell:	Completed after 0 iterations at t[s]:  14695.86
	FillingsUpdate:  mu: -0.145500000  nElectrons: 207.172462  magneticMoment: [ Abs: 1.01826  Tot: -0.74827 ]
	SubspaceRotationAdjust: set factor to 0.124
ElecMinimize: Iter:  55  G: -319.358822381747586  |grad|_K:  8.963e-08  alpha:  2.427e-02  linmin: -5.288e-07  t[s]:  14738.02
ElecMinimize: Converged (|Delta G|<1.000000e-07 for 2 iters).
Setting wave functions to eigenvectors of Hamiltonian
Converging empty states (this may take a while): |deigs|: 1.092e-03
Single-point solvation energy estimate, DeltaG = -0.045456087493449

Computing DFT-D3 correction:
# coordination-number C 3.303 3.326 3.338 3.335 3.316 3.291 3.326 3.565 3.332 3.316 3.303 3.327 3.304 3.304 3.326 3.577 3.268 3.304 3.323 3.338 3.332 3.304 3.304 3.332 3.338 3.323 3.303 3.268 3.565 3.326 3.304 3.304 3.326 3.303 3.316 3.332 3.578 3.328 3.292 3.316 3.335 3.338 3.326 3.303
# coordination-number N 3.175 3.177 3.175 3.176
# coordination-number Ti 5.334
# diagonal-C6 C 24.26 24.02 23.89 23.92 24.12 24.36 24.02 20.72 23.96 24.12 24.25 24.01 24.24 24.25 24.02 20.56 24.56 24.25 24.05 23.89 23.96 24.24 24.24 23.96 23.89 24.05 24.25 24.57 20.71 24.02 24.25 24.24 24.01 24.25 24.12 23.96 20.54 24.00 24.36 24.12 23.92 23.89 24.02 24.25
# diagonal-C6 N 15.60 15.60 15.60 15.60
# diagonal-C6 Ti 321.59
EvdW_6 =   -0.036023
EvdW_8 =   -0.029683

# Ionic positions in cartesian coordinates:
ion C  -0.000292000000000   0.029136000000000  -0.006013000000000 1
ion C  21.024163999999999   3.978041000000000  -0.050048000000000 1
ion C  18.683807999999999   7.974316999999999  -0.181287000000000 1
ion C  -7.032923000000002  11.971454000000000  -0.186824000000000 1
ion C  -9.358456000000004  15.979353000000000  -0.072454000000000 1
ion C   4.681466000000000   0.141290000000000   0.037244000000000 1
ion C   2.290668000000000   4.155372000000000   0.142703000000000 1
ion C  -0.112137000000001   7.954042000000000   0.056190000000000 1
ion C  -2.419850000000001  11.956257999999998  -0.090535000000000 1
ion C  -4.714365000000000  15.982482999999997  -0.069513000000000 1
ion C   9.363919000000001   0.034796000000000  -0.008565000000000 1
ion C   7.066953000000000   4.156590999999999   0.128039000000000 1
ion C  -0.022371000000001  15.875019999999997   0.014794000000000 1
ion C   2.344056999999999  19.833667999999999  -0.009257000000000 1
ion C  11.744833000000000   3.970314000000000  -0.059131000000000 1
ion C   9.464203999999999   7.960900999999999   0.033307000000000 1
ion C   4.669554999999999  15.734778000000000   0.130850000000000 1
ion C   6.988649999999998  19.837734999999995  -0.010165000000000 1
ion C  16.384423000000002   3.950180000000000  -0.118220000000000 1
ion C  14.079727999999999   7.970620000000000  -0.185007000000000 1
ion C  11.765849999999999  11.967594000000000  -0.101869000000000 1
ion C   9.361527000000001  15.883722999999998   0.003374000000000 1
ion C  -0.011833000000000   2.712433000000000   0.017389000000000 1
ion C  -2.415489000000000   6.627148999999999  -0.089151000000000 1
ion C  -4.729811000000001  10.623165999999999  -0.181590000000000 1
ion C  -7.035372000000001  14.643846000000000  -0.118263000000000 1
ion C  -9.360634000000001  18.663215000000001  -0.007873000000000 1
ion C   4.679484000000000   2.859904000000000   0.135609000000000 1
ion C  -0.114451000000001  10.633125000000000   0.054503000000000 1
ion C  -2.395793000000001  14.623293000000000  -0.051562000000000 1
ion C  -4.716344000000001  18.666284999999998  -0.008435000000000 1
ion C   9.371458000000002   2.717949000000000   0.006445000000000 1
ion C   2.282473000000000  14.436119999999999   0.138247000000000 1
ion C  -0.014891000000002  18.558192999999999  -0.006964000000000 1
ion C  14.063299000000001   2.611264000000000  -0.072238000000000 1
ion C  11.769871999999998   6.637309000000000  -0.100225000000000 1
ion C   9.462263999999998  10.640621000000001   0.031447000000000 1
ion C   7.059140999999999  14.441979999999999   0.123237000000000 1
ion C   4.667362000000001  18.453192999999995   0.034216000000000 1
ion C  18.707659000000000   2.615250000000000  -0.069686000000000 1
ion C  16.382722999999999   6.622531000000000  -0.186478000000000 1
ion C  14.077669000000000  10.637615000000002  -0.185397000000000 1
ion C  11.736681000000004  14.634607999999998  -0.061078000000000 1
ion C   9.349914999999999  18.566781999999996  -0.010079000000000 1
ion N   2.175885999999999  11.836374999999999   0.279998000000000 1
ion N   7.170385999999999  11.842261999999998   0.252876000000000 1
ion N   2.180207000000000   6.755269000000000   0.284151000000000 1
ion N   7.174125000000002   6.756614999999999   0.257505000000000 1
ion Ti   4.692641999999998   9.301686999999999   1.865991000000000 1

# Forces in Cartesian coordinates:
force C  -0.000012881312934   0.000006816469814  -0.000063874254264 1
force C   0.000043526497664   0.000001880009408  -0.000050448377036 1
force C   0.000003561670764   0.000024949125714   0.000056441529969 1
force C   0.000015910865771  -0.000077508655956   0.000027651907959 1
force C  -0.000030427444589  -0.000069021384708  -0.000012738697940 1
force C   0.000016252998615  -0.000005014250208   0.000033656957284 1
force C   0.000063433577619  -0.000042370195695  -0.000011477447183 1
force C   0.000143314174657   0.000085785576996  -0.000048361229720 1
force C   0.000035800853089  -0.000008893225464  -0.000038669892266 1
force C   0.000073161417668  -0.000047190872586  -0.000006467588366 1
force C   0.000053712536667   0.000026759140801  -0.000054208625937 1
force C  -0.000040799413926  -0.000037238555964   0.000041591166521 1
force C  -0.000028326731040   0.000077265697217  -0.000083425602537 1
force C   0.000016018684470   0.000084071940603   0.000002668473649 1
force C  -0.000011763342718   0.000004547008000  -0.000067260200164 1
force C  -0.000121890061106   0.000098462812244  -0.000053314975969 1
force C   0.000017158604916   0.000066050279503   0.000016864442548 1
force C   0.000018470151833   0.000062893711484   0.000008945170988 1
force C   0.000032828937855  -0.000004512489401   0.000014575131396 1
force C   0.000042199397004   0.000035111226760  -0.000038336208971 1
force C   0.000016108362240  -0.000000135276768  -0.000116827629771 1
force C   0.000059491883194   0.000059351428997  -0.000045800429834 1
force C  -0.000025736778884  -0.000069196079412  -0.000080163885622 1
force C   0.000025695591968   0.000018842597669  -0.000031224851367 1
force C  -0.000000540395168  -0.000004798435214   0.000053744050357 1
force C   0.000014862619844   0.000022689095314   0.000008292264968 1
force C   0.000016439105605  -0.000051081052640  -0.000000679141750 1
force C   0.000025341037590  -0.000053143157102   0.000009865226391 1
force C   0.000138218236224  -0.000067938713001  -0.000041407784012 1
force C   0.000047249757565   0.000025893653775  -0.000048037477419 1
force C   0.000014937973417  -0.000046723702438   0.000009089954635 1
force C   0.000059355742239  -0.000045570549652  -0.000046312384969 1
force C   0.000061855904385   0.000053310529919  -0.000010628502744 1
force C  -0.000014909811221   0.000013767495486  -0.000067407040728 1
force C  -0.000031144737100   0.000075178740422  -0.000014963043349 1
force C   0.000006002190711   0.000017087029464  -0.000114970352742 1
force C  -0.000127583115887  -0.000084802690965  -0.000052959888065 1
force C  -0.000038273261879   0.000057506386250   0.000041653137902 1
force C   0.000019272538978   0.000026057475479   0.000031220729311 1
force C   0.000055423483400   0.000071259906961   0.000004169938276 1
force C   0.000010413469742   0.000091036346263   0.000029183925877 1
force C   0.000033607657606  -0.000007943042006  -0.000036948617799 1
force C  -0.000018553281412   0.000017657853031  -0.000070356295581 1
force C   0.000046715999409  -0.000007279716222  -0.000051072735905 1
force N  -0.000217616307353   0.000138512005222   0.000055975112798 1
force N   0.000261322547109   0.000130917555631   0.000139484930157 1
force N  -0.000217629165477  -0.000113225371411   0.000056345609324 1
force N   0.000262946739163  -0.000119707429193   0.000128410270232 1
force Ti  -0.000046851723421  -0.000002228710191  -0.000101551246254 1

# Energy components:
   A_diel =       -0.0431366566536885
   Eewald =     1532.4001895013991543
       EH =     1801.5547708726739984
     Eloc =    -3813.3238505748831813
      Enl =       47.2716512591977249
     EvdW =       -0.0657055921782752
      Exc =      -99.6017493806245540
 Exc_core =        3.1457509917891509
       KE =      179.1517391244820772
  MuShift =        0.0084681755186092
-------------------------------------
     Etot =     -349.5018722792787003
       TS =        0.0005433630263279
-------------------------------------
        F =     -349.5024156423050385
      muN =      -30.1435932605574450
-------------------------------------
        G =     -319.3588223817475864


Dumping 'jdft.fillings' ... done
Dumping 'jdft.wfns' ... done
Dumping 'jdft.fluidState' ... done
Dumping 'jdft.ionpos' ... done
Dumping 'jdft.lattice' ... done
Dumping 'jdft.eigenvals' ... done
Dumping 'jdft.eigStats' ... 
	eMin: -2.286214 at state 10 ( [ +0.000000 +0.333333 +0.000000 ] spin -1 )
	HOMO: -0.146461 at state 11 ( [ +0.000000 -0.333333 +0.000000 ] spin -1 )
	mu  : -0.145500
	LUMO: -0.144932 at state 17 ( [ -0.333333 -0.333333 +0.000000 ] spin -1 )
	eMax: +0.019905 at state 9 ( [ +0.000000 +0.000000 +0.000000 ] spin -1 )
	HOMO-LUMO gap: +0.001528
	Optical gap  : +0.007503 at state 17 ( [ -0.333333 -0.333333 +0.000000 ] spin -1 )
Dumping 'jdft.Ecomponents' ... done
IonicMinimize: Iter:   0  G: -319.358822381747586  |grad|_K:  6.718e-05  t[s]:  15375.71
IonicMinimize: Converged (|grad|_K<1.000000e-04).

#--- Lowdin population analysis ---
# oxidation-state C +0.042 +0.053 +0.042 +0.049 +0.040 +0.044 +0.171 +0.136 +0.031 +0.040 +0.043 +0.171 +0.028 +0.047 +0.053 +0.135 +0.003 +0.047 +0.039 +0.043 +0.031 +0.028 +0.028 +0.031 +0.042 +0.039 +0.047 +0.003 +0.136 +0.053 +0.047 +0.028 +0.171 +0.042 +0.040 +0.031 +0.135 +0.171 +0.044 +0.040 +0.049 +0.043 +0.053 +0.043
# magnetic-moments C +0.000 +0.002 -0.000 -0.000 -0.000 -0.001 -0.005 +0.001 -0.004 -0.000 +0.000 -0.005 +0.001 +0.001 +0.002 +0.002 +0.007 +0.001 +0.003 -0.000 -0.004 +0.000 +0.001 -0.004 -0.000 +0.003 +0.001 +0.007 +0.001 +0.002 +0.001 +0.000 -0.005 +0.000 -0.000 -0.004 +0.002 -0.005 -0.001 -0.000 -0.000 -0.000 +0.002 +0.000
# oxidation-state N -0.299 -0.299 -0.299 -0.299
# magnetic-moments N +0.023 +0.023 +0.023 +0.023
# oxidation-state Ti +1.595
# magnetic-moments Ti -0.827


Dumping 'jdft.n_up' ... done
Dumping 'jdft.n_dn' ... done
Dumping 'jdft.tau_up' ... done
Dumping 'jdft.tau_dn' ... done
Dumping 'jdft.eigenvals' ... done
Dumping 'jdft.eigStats' ... 
	eMin: -2.286214 at state 10 ( [ +0.000000 +0.333333 +0.000000 ] spin -1 )
	HOMO: -0.146461 at state 11 ( [ +0.000000 -0.333333 +0.000000 ] spin -1 )
	mu  : -0.145500
	LUMO: -0.144932 at state 17 ( [ -0.333333 -0.333333 +0.000000 ] spin -1 )
	eMax: +0.019905 at state 9 ( [ +0.000000 +0.000000 +0.000000 ] spin -1 )
	HOMO-LUMO gap: +0.001528
	Optical gap  : +0.007503 at state 17 ( [ -0.333333 -0.333333 +0.000000 ] spin -1 )
Dumping 'jdft.kPts' ... done
Dumping 'jdft.dosUp' ... done.
Dumping 'jdft.dosDn' ... done.
End date and time: Tue Mar 14 17:51:56 2023  (Duration: 0-4:17:20.94)
Done!

PROFILER:             augmentDensityGrid     0.933629 +/-     0.981351 s,  801 calls,    747.837082 s total
PROFILER:         augmentDensityGridGrad     0.556790 +/-     0.528665 s,  402 calls,    223.829648 s total
PROFILER:        augmentDensitySpherical     0.000336 +/-     0.000367 s,  801 calls,      0.268751 s total
PROFILER:    augmentDensitySphericalGrad     0.000310 +/-     0.000363 s,  579 calls,      0.179608 s total
PROFILER:                 augmentOverlap     1.727654 +/-     2.028441 s, 1506 calls,   2601.847634 s total
PROFILER:        ColumnBundle::randomize     0.004942 +/-     0.000000 s,    1 calls,      0.004942 s total
PROFILER:                     diagouterI    14.402056 +/-     3.396659 s,  270 calls,   3888.555235 s total
PROFILER:              EdensityAndVscloc     5.222656 +/-     5.659841 s,  268 calls,   1399.671806 s total
PROFILER:                     EnlAndGrad     0.000941 +/-     0.001275 s,  771 calls,      0.725697 s total
PROFILER:            ExCorrCommunication     0.063419 +/-     0.085239 s, 1621 calls,    102.802146 s total
PROFILER:               ExCorrFunctional     0.026070 +/-     0.003020 s,  272 calls,      7.090927 s total
PROFILER:                    ExCorrTotal     0.644150 +/-     0.164481 s,  272 calls,    175.208736 s total
PROFILER:                   Idag_DiagV_I    21.465199 +/-    12.699812 s,  192 calls,   4121.318128 s total
PROFILER:                    initWeights     1.826854 +/-     0.000000 s,    1 calls,      1.826854 s total
PROFILER:                    inv(matrix)     0.001213 +/-     0.000038 s,  191 calls,      0.231691 s total
PROFILER:            matrix::diagonalize     0.005901 +/-     0.003600 s,  450 calls,      2.655246 s total
PROFILER:                    matrix::set     0.000002 +/-     0.000003 s, 22562 calls,      0.037840 s total
PROFILER:            orthoMatrix(matrix)     0.000727 +/-     0.000675 s,  250 calls,      0.181868 s total
PROFILER:     RadialFunctionR::transform     0.011783 +/-     0.065411 s,  106 calls,      1.248970 s total
PROFILER:                    reduceKmesh     0.000001 +/-     0.000000 s,    1 calls,      0.000001 s total
PROFILER:   VanDerWaalsD3::energyAndGrad     0.028970 +/-     0.002997 s,    3 calls,      0.086910 s total
PROFILER:               WavefunctionDrag    12.789066 +/-     0.000000 s,    1 calls,     12.789066 s total
PROFILER:                            Y*M     0.704115 +/-     0.762318 s, 3151 calls,   2218.666317 s total
PROFILER:                          Y1^Y2     0.674172 +/-     0.766148 s, 2174 calls,   1465.649808 s total

MEMUSAGE:                   ColumnBundle     1.255010 GB
MEMUSAGE:        complexScalarFieldTilde     0.024719 GB
MEMUSAGE:                    IndexArrays     0.023113 GB
MEMUSAGE:                         matrix     0.019775 GB
MEMUSAGE:                           misc     0.050514 GB
MEMUSAGE:                    ScalarField     0.358429 GB
MEMUSAGE:               ScalarFieldTilde     0.262436 GB
MEMUSAGE:                          Total     1.533172 GB
