
*************** JDFTx 1.7.0 (git hash 5f12716a) ***************

Start date and time: Sun Nov 20 21:25:27 2022
Executable /home/nisi6161/jdftx_alpine/build/jdftx with command-line: -i in
Running on hosts (process indices):  c3cpu-a5-u15-4.rc.int.colorado.edu (0-17)
Divided in process groups (process indices):  0 (0)  1 (1)  2 (2)  3 (3)  4 (4)  5 (5)  6 (6)  7 (7)  8 (8)  9 (9)  10 (10)  11 (11)  12 (12)  13 (13)  14 (14)  15 (15)  16 (16)  17 (17)
Resource initialization completed at t[s]:      0.01
Run totals: 18 processes, 64 threads, 0 GPUs


Input parsed successfully to the following command list (including defaults):

basis kpoint-dependent
converge-empty-states yes
coords-type Cartesian
core-overlap-check none
coulomb-interaction Periodic
davidson-band-ratio 1.1
density-of-states Etol 1.000000e-06 Esigma 1.000000e-03 \
		Complete \
	Total \
	OrthoOrbital C 1   s \
	OrthoOrbital C 1   p \
	OrthoOrbital C 1   px \
	OrthoOrbital C 1   py \
	OrthoOrbital C 1   pz \
	OrthoOrbital C 2   s \
	OrthoOrbital C 2   p \
	OrthoOrbital C 2   px \
	OrthoOrbital C 2   py \
	OrthoOrbital C 2   pz \
	OrthoOrbital C 3   s \
	OrthoOrbital C 3   p \
	OrthoOrbital C 3   px \
	OrthoOrbital C 3   py \
	OrthoOrbital C 3   pz \
	OrthoOrbital C 4   s \
	OrthoOrbital C 4   p \
	OrthoOrbital C 4   px \
	OrthoOrbital C 4   py \
	OrthoOrbital C 4   pz \
	OrthoOrbital C 5   s \
	OrthoOrbital C 5   p \
	OrthoOrbital C 5   px \
	OrthoOrbital C 5   py \
	OrthoOrbital C 5   pz \
	OrthoOrbital C 6   s \
	OrthoOrbital C 6   p \
	OrthoOrbital C 6   px \
	OrthoOrbital C 6   py \
	OrthoOrbital C 6   pz \
	OrthoOrbital C 7   s \
	OrthoOrbital C 7   p \
	OrthoOrbital C 7   px \
	OrthoOrbital C 7   py \
	OrthoOrbital C 7   pz \
	OrthoOrbital C 8   s \
	OrthoOrbital C 8   p \
	OrthoOrbital C 8   px \
	OrthoOrbital C 8   py \
	OrthoOrbital C 8   pz \
	OrthoOrbital C 9   s \
	OrthoOrbital C 9   p \
	OrthoOrbital C 9   px \
	OrthoOrbital C 9   py \
	OrthoOrbital C 9   pz \
	OrthoOrbital C 10   s \
	OrthoOrbital C 10   p \
	OrthoOrbital C 10   px \
	OrthoOrbital C 10   py \
	OrthoOrbital C 10   pz \
	OrthoOrbital C 11   s \
	OrthoOrbital C 11   p \
	OrthoOrbital C 11   px \
	OrthoOrbital C 11   py \
	OrthoOrbital C 11   pz \
	OrthoOrbital C 12   s \
	OrthoOrbital C 12   p \
	OrthoOrbital C 12   px \
	OrthoOrbital C 12   py \
	OrthoOrbital C 12   pz \
	OrthoOrbital C 13   s \
	OrthoOrbital C 13   p \
	OrthoOrbital C 13   px \
	OrthoOrbital C 13   py \
	OrthoOrbital C 13   pz \
	OrthoOrbital C 14   s \
	OrthoOrbital C 14   p \
	OrthoOrbital C 14   px \
	OrthoOrbital C 14   py \
	OrthoOrbital C 14   pz \
	OrthoOrbital C 15   s \
	OrthoOrbital C 15   p \
	OrthoOrbital C 15   px \
	OrthoOrbital C 15   py \
	OrthoOrbital C 15   pz \
	OrthoOrbital C 16   s \
	OrthoOrbital C 16   p \
	OrthoOrbital C 16   px \
	OrthoOrbital C 16   py \
	OrthoOrbital C 16   pz \
	OrthoOrbital C 17   s \
	OrthoOrbital C 17   p \
	OrthoOrbital C 17   px \
	OrthoOrbital C 17   py \
	OrthoOrbital C 17   pz \
	OrthoOrbital C 18   s \
	OrthoOrbital C 18   p \
	OrthoOrbital C 18   px \
	OrthoOrbital C 18   py \
	OrthoOrbital C 18   pz \
	OrthoOrbital C 19   s \
	OrthoOrbital C 19   p \
	OrthoOrbital C 19   px \
	OrthoOrbital C 19   py \
	OrthoOrbital C 19   pz \
	OrthoOrbital C 20   s \
	OrthoOrbital C 20   p \
	OrthoOrbital C 20   px \
	OrthoOrbital C 20   py \
	OrthoOrbital C 20   pz \
	OrthoOrbital C 21   s \
	OrthoOrbital C 21   p \
	OrthoOrbital C 21   px \
	OrthoOrbital C 21   py \
	OrthoOrbital C 21   pz \
	OrthoOrbital C 22   s \
	OrthoOrbital C 22   p \
	OrthoOrbital C 22   px \
	OrthoOrbital C 22   py \
	OrthoOrbital C 22   pz \
	OrthoOrbital C 23   s \
	OrthoOrbital C 23   p \
	OrthoOrbital C 23   px \
	OrthoOrbital C 23   py \
	OrthoOrbital C 23   pz \
	OrthoOrbital C 24   s \
	OrthoOrbital C 24   p \
	OrthoOrbital C 24   px \
	OrthoOrbital C 24   py \
	OrthoOrbital C 24   pz \
	OrthoOrbital C 25   s \
	OrthoOrbital C 25   p \
	OrthoOrbital C 25   px \
	OrthoOrbital C 25   py \
	OrthoOrbital C 25   pz \
	OrthoOrbital C 26   s \
	OrthoOrbital C 26   p \
	OrthoOrbital C 26   px \
	OrthoOrbital C 26   py \
	OrthoOrbital C 26   pz \
	OrthoOrbital C 27   s \
	OrthoOrbital C 27   p \
	OrthoOrbital C 27   px \
	OrthoOrbital C 27   py \
	OrthoOrbital C 27   pz \
	OrthoOrbital C 28   s \
	OrthoOrbital C 28   p \
	OrthoOrbital C 28   px \
	OrthoOrbital C 28   py \
	OrthoOrbital C 28   pz \
	OrthoOrbital C 29   s \
	OrthoOrbital C 29   p \
	OrthoOrbital C 29   px \
	OrthoOrbital C 29   py \
	OrthoOrbital C 29   pz \
	OrthoOrbital C 30   s \
	OrthoOrbital C 30   p \
	OrthoOrbital C 30   px \
	OrthoOrbital C 30   py \
	OrthoOrbital C 30   pz \
	OrthoOrbital C 31   s \
	OrthoOrbital C 31   p \
	OrthoOrbital C 31   px \
	OrthoOrbital C 31   py \
	OrthoOrbital C 31   pz \
	OrthoOrbital C 32   s \
	OrthoOrbital C 32   p \
	OrthoOrbital C 32   px \
	OrthoOrbital C 32   py \
	OrthoOrbital C 32   pz \
	OrthoOrbital C 33   s \
	OrthoOrbital C 33   p \
	OrthoOrbital C 33   px \
	OrthoOrbital C 33   py \
	OrthoOrbital C 33   pz \
	OrthoOrbital C 34   s \
	OrthoOrbital C 34   p \
	OrthoOrbital C 34   px \
	OrthoOrbital C 34   py \
	OrthoOrbital C 34   pz \
	OrthoOrbital C 35   s \
	OrthoOrbital C 35   p \
	OrthoOrbital C 35   px \
	OrthoOrbital C 35   py \
	OrthoOrbital C 35   pz \
	OrthoOrbital C 36   s \
	OrthoOrbital C 36   p \
	OrthoOrbital C 36   px \
	OrthoOrbital C 36   py \
	OrthoOrbital C 36   pz \
	OrthoOrbital C 37   s \
	OrthoOrbital C 37   p \
	OrthoOrbital C 37   px \
	OrthoOrbital C 37   py \
	OrthoOrbital C 37   pz \
	OrthoOrbital C 38   s \
	OrthoOrbital C 38   p \
	OrthoOrbital C 38   px \
	OrthoOrbital C 38   py \
	OrthoOrbital C 38   pz \
	OrthoOrbital C 39   s \
	OrthoOrbital C 39   p \
	OrthoOrbital C 39   px \
	OrthoOrbital C 39   py \
	OrthoOrbital C 39   pz \
	OrthoOrbital C 40   s \
	OrthoOrbital C 40   p \
	OrthoOrbital C 40   px \
	OrthoOrbital C 40   py \
	OrthoOrbital C 40   pz \
	OrthoOrbital C 41   s \
	OrthoOrbital C 41   p \
	OrthoOrbital C 41   px \
	OrthoOrbital C 41   py \
	OrthoOrbital C 41   pz \
	OrthoOrbital C 42   s \
	OrthoOrbital C 42   p \
	OrthoOrbital C 42   px \
	OrthoOrbital C 42   py \
	OrthoOrbital C 42   pz \
	OrthoOrbital C 43   s \
	OrthoOrbital C 43   p \
	OrthoOrbital C 43   px \
	OrthoOrbital C 43   py \
	OrthoOrbital C 43   pz \
	OrthoOrbital C 44   s \
	OrthoOrbital C 44   p \
	OrthoOrbital C 44   px \
	OrthoOrbital C 44   py \
	OrthoOrbital C 44   pz \
	OrthoOrbital C 45   s \
	OrthoOrbital C 45   p \
	OrthoOrbital C 45   px \
	OrthoOrbital C 45   py \
	OrthoOrbital C 45   pz \
	OrthoOrbital N 1   s \
	OrthoOrbital N 1   p \
	OrthoOrbital N 1   px \
	OrthoOrbital N 1   py \
	OrthoOrbital N 1   pz \
	OrthoOrbital N 2   s \
	OrthoOrbital N 2   p \
	OrthoOrbital N 2   px \
	OrthoOrbital N 2   py \
	OrthoOrbital N 2   pz \
	OrthoOrbital N 3   s \
	OrthoOrbital N 3   p \
	OrthoOrbital N 3   px \
	OrthoOrbital N 3   py \
	OrthoOrbital N 3   pz \
	OrthoOrbital N 4   s \
	OrthoOrbital N 4   p \
	OrthoOrbital N 4   px \
	OrthoOrbital N 4   py \
	OrthoOrbital N 4   pz \
	OrthoOrbital Ti 1   s \
	OrthoOrbital Ti 1   p \
	OrthoOrbital Ti 1   px \
	OrthoOrbital Ti 1   py \
	OrthoOrbital Ti 1   pz \
	OrthoOrbital Ti 1   d \
	OrthoOrbital Ti 1   dxy \
	OrthoOrbital Ti 1   dyz \
	OrthoOrbital Ti 1   dz2 \
	OrthoOrbital Ti 1   dxz \
	OrthoOrbital Ti 1   dx2-y2 \
	OrthoOrbital O 1   s \
	OrthoOrbital O 1   p \
	OrthoOrbital O 1   px \
	OrthoOrbital O 1   py \
	OrthoOrbital O 1   pz \
	OrthoOrbital O 2   s \
	OrthoOrbital O 2   p \
	OrthoOrbital O 2   px \
	OrthoOrbital O 2   py \
	OrthoOrbital O 2   pz \
	OrthoOrbital O 3   s \
	OrthoOrbital O 3   p \
	OrthoOrbital O 3   px \
	OrthoOrbital O 3   py \
	OrthoOrbital O 3   pz \
	OrthoOrbital H 1   s \
	OrthoOrbital H 2   s \
	OrthoOrbital H 3   s
dump End ElecDensity KEdensity BandEigs EigStats RhoAtom DOS Kpoints
dump Ionic State IonicPositions Lattice EigStats Ecomponents
dump 
dump 
dump 
dump 
dump 
dump 
dump 
dump 
dump-name jdft.$VAR
elec-cutoff 20
elec-eigen-algo Davidson
elec-ex-corr gga-PBE
elec-initial-magnetization 0.000000 no
elec-n-bands 140
elec-smearing Fermi 0.001
electronic-minimize  \
	dirUpdateScheme      FletcherReeves \
	linminMethod         DirUpdateRecommended \
	nIterations          100 \
	history              15 \
	knormThreshold       0 \
	energyDiffThreshold  1e-07 \
	nEnergyDiff          2 \
	alphaTstart          1 \
	alphaTmin            1e-10 \
	updateTestStepSize   yes \
	alphaTreduceFactor   0.1 \
	alphaTincreaseFactor 3 \
	nAlphaAdjustMax      3 \
	wolfeEnergy          0.0001 \
	wolfeGradient        0.9 \
	fdTest               no
exchange-regularization WignerSeitzTruncated
fluid LinearPCM 298.000000 1.013250
fluid-anion F- 0.5 MeanFieldLJ \
	epsBulk 1 \
	pMol 0 \
	epsInf 1 \
	Pvap 0 \
	sigmaBulk 0 \
	Rvdw 2.24877 \
	Res 0 \
	tauNuc 343133
fluid-cation Na+ 0.5 MeanFieldLJ \
	epsBulk 1 \
	pMol 0 \
	epsInf 1 \
	Pvap 0 \
	sigmaBulk 0 \
	Rvdw 2.19208 \
	Res 0 \
	tauNuc 343133
fluid-ex-corr lda-TF lda-PZ
fluid-gummel-loop 10 1.000000e-05
fluid-minimize  \
	dirUpdateScheme      PolakRibiere \
	linminMethod         DirUpdateRecommended \
	nIterations          400 \
	history              15 \
	knormThreshold       1e-11 \
	energyDiffThreshold  0 \
	nEnergyDiff          2 \
	alphaTstart          1 \
	alphaTmin            1e-10 \
	updateTestStepSize   yes \
	alphaTreduceFactor   0.1 \
	alphaTincreaseFactor 3 \
	nAlphaAdjustMax      6 \
	wolfeEnergy          0.0001 \
	wolfeGradient        0.9 \
	fdTest               no
fluid-solvent H2O 55.338 ScalarEOS \
	epsBulk 78.4 \
	pMol 0.92466 \
	epsInf 1.77 \
	Pvap 1.06736e-10 \
	sigmaBulk 4.62e-05 \
	Rvdw 2.61727 \
	Res 1.42 \
	tauNuc 343133 \
	poleEl 15 7 1
forces-output-coords Positions
initial-state jdft.$VAR
ion C   0.002461000000000   0.090659000000000   0.035211000000000 0
ion C  21.041053000000002   4.043435000000001   0.055195000000000 0
ion C  18.693049999999999   8.044991000000001  43.242557000000005 0
ion C  -7.046992000000000  12.045087000000002  43.237972000000006 0
ion C  -9.373006000000002  16.055339000000004   0.014058000000000 0
ion C   4.682712000000001   0.178006000000000   0.056017000000000 0
ion C   2.288986000000000   4.209373000000001   0.200839000000000 0
ion C  -0.131572000000000   8.023855000000001   0.205641000000000 0
ion C  -2.427594000000003  12.026528000000004   0.070075000000000 0
ion C  -4.719897000000002  16.054004000000003   0.027554000000000 0
ion C   9.378058000000001   0.064519000000000   0.004196000000000 0
ion C   7.082672000000001   4.155137000000001   0.027684000000000 0
ion C  -0.019167000000001  15.949339000000004   0.097932000000000 0
ion C   2.341992000000001  19.929452999999999   0.025651000000000 0
ion C  11.753337999999998   4.028723000000001  43.231787000000004 0
ion C   9.459151000000002   8.022460000000001   0.013712000000000 0
ion C   4.669438000000001  15.840057000000002   0.136776000000000 0
ion C   6.994318000000000  19.941245000000002   0.021412000000000 0
ion C  16.396037000000000   4.017783000000001  43.242644000000006 0
ion C  14.086559999999999   8.039380000000001  43.239443000000009 0
ion C  11.771976000000002  12.042837000000002   0.027468000000000 0
ion C   9.376505000000002  15.996794000000001   0.009170000000000 0
ion C  -0.013639000000000   2.774595000000000   0.087681000000000 0
ion C  -2.429311000000000   6.696097000000001   0.054892000000000 0
ion C  -4.742977000000000  10.694367000000002  43.248527000000010 0
ion C  -7.046983000000002  14.717903000000003   0.006834000000000 0
ion C  -9.375213000000002  18.744274000000004   0.039104000000000 0
ion C   4.679148000000000   2.895589000000001   0.114846000000000 0
ion C  -0.128425000000000  10.699586000000004   0.219396000000000 0
ion C  -2.400585000000001  14.697889000000004   0.071286000000000 0
ion C  -4.721467000000001  18.738989000000004   0.025391000000000 0
ion C   9.388293000000001   2.743428000000001  43.233993000000005 0
ion C   2.286725999999998  14.518199000000005   0.222813000000000 0
ion C  -0.009969000000000  18.634632000000003   0.031577000000000 0
ion C  14.073209000000004   2.676200000000000  43.243639000000009 0
ion C  11.777767000000001   6.702715000000001  43.252333000000007 0
ion C   9.456739999999996  10.717958000000003   0.053205000000000 0
ion C   7.072538000000000  14.585058000000004   0.084826000000000 0
ion C   4.667830000000002  18.558540000000001   0.054892000000000 0
ion C  18.724167000000001   2.684459000000001   0.012631000000000 0
ion C  16.391851000000003   6.691195000000001  43.226033000000008 0
ion C  14.084496000000001  10.711297000000002  43.247272000000009 0
ion C  11.745595000000000  14.717269000000003   0.014967000000000 0
ion C   9.361956000000001  18.675664000000005   0.012025000000000 0
ion C   4.440935000000001   9.173762000000002   5.548314000000001 1
ion N   2.171711999999999  11.911252000000003   0.445280000000000 0
ion N   7.176168999999998  11.997751000000003   0.180898000000000 0
ion N   2.159894000000000   6.808552000000001   0.405225000000000 0
ion N   7.186338000000001   6.738493000000001   0.048880000000000 0
ion Ti   4.884646000000001   9.336981000000000   1.565143000000000 0
ion O   3.917090000000000  10.939130000000000   7.519591000000002 1
ion O   4.926117000000001   7.016948000000001   6.249845000000001 1
ion O   1.792794999999998  15.280322000000004   6.080929000000001 1
ion H   3.296634999999999  12.545077000000001   6.785099000000001 1
ion H   2.567372999999998  16.718396000000002   6.970928000000002 1
ion H   0.048710999999999  15.254244000000002   6.715024000000001 1
ion-species /projects/musgravc/apps/jdftx-1.6.0/build/pseudopotentials/GBRV_v1.5/$ID_pbe_v1.uspp
ion-species /projects/musgravc/apps/jdftx-1.6.0/build/pseudopotentials/GBRV_v1.5/$ID_pbe_v1.2.uspp
ion-species /projects/musgravc/apps/jdftx-1.6.0/build/pseudopotentials/GBRV_v1.5/$ID_pbe_v1.4.uspp
ion-species /projects/musgravc/apps/jdftx-1.6.0/build/pseudopotentials/GBRV_v1.5/$ID_pbe_v1.5.uspp
ion-width Ecut
ionic-minimize  \
	dirUpdateScheme      L-BFGS \
	linminMethod         DirUpdateRecommended \
	nIterations          0 \
	history              15 \
	knormThreshold       0.0001 \
	energyDiffThreshold  1e-06 \
	nEnergyDiff          2 \
	alphaTstart          1 \
	alphaTmin            1e-10 \
	updateTestStepSize   yes \
	alphaTreduceFactor   0.1 \
	alphaTincreaseFactor 3 \
	nAlphaAdjustMax      3 \
	wolfeEnergy          0.0001 \
	wolfeGradient        0.9 \
	fdTest               no
kpoint   0.000000000000   0.000000000000   0.000000000000  1.00000000000000
kpoint-folding 3 3 1 
latt-move-scale 0 0 0
latt-scale 1 1 1 
lattice  \
	  23.436261999999999  -11.733459000000000    0.000000000000000  \
	   0.017994000000000   19.941849000000001    0.000000000000000  \
	   0.000000000000000    0.000000000000000   43.256312999999999 
lattice-minimize  \
	dirUpdateScheme      L-BFGS \
	linminMethod         DirUpdateRecommended \
	nIterations          0 \
	history              15 \
	knormThreshold       0 \
	energyDiffThreshold  1e-06 \
	nEnergyDiff          2 \
	alphaTstart          1 \
	alphaTmin            1e-10 \
	updateTestStepSize   yes \
	alphaTreduceFactor   0.1 \
	alphaTincreaseFactor 3 \
	nAlphaAdjustMax      3 \
	wolfeEnergy          0.0001 \
	wolfeGradient        0.9 \
	fdTest               no
lcao-params 30 1e-06 0.001
pcm-variant CANDLE
spintype z-spin
subspace-rotation-factor 1 yes
symmetries none
symmetry-threshold 0.0001
target-mu -0.1272 no

van-der-waals D3
vibrations \
	dr 0.01\
	centralDiff no\
	useConstraints yes\
	translationSym yes\
	rotationSym no\
	omegaMin 0.0002\
	T 298\
	omegaResolution 0.0001


Applied RMS atom displacement 0 bohrs to make symmetries exact.
Applied RMS atom displacement 0 bohrs to make symmetries exact.

---------- Initializing the Grid ----------
R = 
[      23.4363     -11.7335            0  ]
[     0.017994      19.9418            0  ]
[            0            0      43.2563  ]
unit cell volume = 20225.5
G =
[   0.267976   0.157673         -0  ]
[ -0.000241801   0.314933          0  ]
[          0         -0   0.145255  ]
Minimum fftbox size, Smin = [  96  96  176  ]
Chosen fftbox size, S = [  96  96  180  ]

---------- Exchange Correlation functional ----------
Initalized PBE GGA exchange.
Initalized PBE GGA correlation.

---------- Setting up pseudopotentials ----------
Width of ionic core gaussian charges (only for fluid interactions / plotting) set to 0.397384

Reading pseudopotential file '/projects/musgravc/apps/jdftx-1.6.0/build/pseudopotentials/GBRV_v1.5/c_pbe_v1.2.uspp':
  Title: C.  Created by USPP 7.3.6 on 3-2-2014
  Reference state energy: -5.406344.  4 valence electrons in orbitals:
    |200>  occupation: 2  eigenvalue: -0.504890
    |210>  occupation: 2  eigenvalue: -0.194356
  lMax: 1  lLocal: 2  QijEcut: 5
  4 projectors sampled on a log grid with 503 points:
    l: 0  eig: -0.504890  rCut: 1.3
    l: 0  eig: 0.000000  rCut: 1.3
    l: 1  eig: -0.194357  rCut: 1.3
    l: 1  eig: 0.000000  rCut: 1.3
  Partial core density with radius 1.1
  Transforming core density to a uniform radial grid of dG=0.02 with 1464 points.
  Transforming local potential to a uniform radial grid of dG=0.02 with 1464 points.
  Transforming nonlocal projectors to a uniform radial grid of dG=0.02 with 432 points.
  Transforming density augmentations to a uniform radial grid of dG=0.02 with 1464 points.
  Transforming atomic orbitals to a uniform radial grid of dG=0.02 with 432 points.
  Core radius for overlap checks: 1.30 bohrs.

Reading pseudopotential file '/projects/musgravc/apps/jdftx-1.6.0/build/pseudopotentials/GBRV_v1.5/n_pbe_v1.2.uspp':
  Title: N.  Created by USPP 7.3.6 on 3-2-2014
  Reference state energy: -9.763716.  5 valence electrons in orbitals:
    |200>  occupation: 2  eigenvalue: -0.681964
    |210>  occupation: 3  eigenvalue: -0.260726
  lMax: 1  lLocal: 2  QijEcut: 6
  4 projectors sampled on a log grid with 491 points:
    l: 0  eig: -0.681964  rCut: 1.15
    l: 0  eig: 0.000000  rCut: 1.15
    l: 1  eig: -0.260729  rCut: 1.2
    l: 1  eig: 0.500000  rCut: 1.2
  Partial core density with radius 0.8
  Transforming core density to a uniform radial grid of dG=0.02 with 1464 points.
  Transforming local potential to a uniform radial grid of dG=0.02 with 1464 points.
  Transforming nonlocal projectors to a uniform radial grid of dG=0.02 with 432 points.
  Transforming density augmentations to a uniform radial grid of dG=0.02 with 1464 points.
  Transforming atomic orbitals to a uniform radial grid of dG=0.02 with 432 points.
  Core radius for overlap checks: 1.20 bohrs.

Reading pseudopotential file '/projects/musgravc/apps/jdftx-1.6.0/build/pseudopotentials/GBRV_v1.5/ti_pbe_v1.4.uspp':
  Title: Ti.  Created by USPP 7.3.6 on 31-3-15
  Reference state energy: -59.020943.  12 valence electrons in orbitals:
    |300>  occupation: 2  eigenvalue: -2.777623
    |310>  occupation: 6  eigenvalue: -1.894596
    |400>  occupation: 2  eigenvalue: -0.438610
    |320>  occupation: 1  eigenvalue: -0.583119
  lMax: 2  lLocal: 3  QijEcut: 6
  6 projectors sampled on a log grid with 597 points:
    l: 0  eig: -2.777624  rCut: 1.8
    l: 0  eig: -0.438611  rCut: 1.8
    l: 1  eig: -1.894596  rCut: 1.8
    l: 1  eig: 0.500000  rCut: 1.8
    l: 2  eig: -0.583118  rCut: 1.8
    l: 2  eig: 0.150000  rCut: 1.8
  Partial core density with radius 0.8
  Transforming core density to a uniform radial grid of dG=0.02 with 1464 points.
  Transforming local potential to a uniform radial grid of dG=0.02 with 1464 points.
  Transforming nonlocal projectors to a uniform radial grid of dG=0.02 with 432 points.
  Transforming density augmentations to a uniform radial grid of dG=0.02 with 1464 points.
  Transforming atomic orbitals to a uniform radial grid of dG=0.02 with 432 points.
  Core radius for overlap checks: 1.80 bohrs.

Reading pseudopotential file '/projects/musgravc/apps/jdftx-1.6.0/build/pseudopotentials/GBRV_v1.5/o_pbe_v1.2.uspp':
  Title: O.  Created by USPP 7.3.6 on 3-2-2014
  Reference state energy: -15.894388.  6 valence electrons in orbitals:
    |200>  occupation: 2  eigenvalue: -0.878823
    |210>  occupation: 4  eigenvalue: -0.332131
  lMax: 2  lLocal: 2  QijEcut: 6
  5 projectors sampled on a log grid with 511 points:
    l: 0  eig: -0.878823  rCut: 1.25
    l: 0  eig: 0.000000  rCut: 1.25
    l: 1  eig: -0.332132  rCut: 1.25
    l: 1  eig: 0.000000  rCut: 1.25
    l: 2  eig: 1.000000  rCut: 1.25
  Partial core density with radius 0.7
  Transforming core density to a uniform radial grid of dG=0.02 with 1464 points.
  Transforming local potential to a uniform radial grid of dG=0.02 with 1464 points.
  Transforming nonlocal projectors to a uniform radial grid of dG=0.02 with 432 points.
  Transforming density augmentations to a uniform radial grid of dG=0.02 with 1464 points.
  Transforming atomic orbitals to a uniform radial grid of dG=0.02 with 432 points.
  Core radius for overlap checks: 1.25 bohrs.

Reading pseudopotential file '/projects/musgravc/apps/jdftx-1.6.0/build/pseudopotentials/GBRV_v1.5/h_pbe_v1.4.uspp':
  Title: H.  Created by USPP 7.3.6 on 2-4-15
  Reference state energy: -0.458849.  1 valence electrons in orbitals:
    |100>  occupation: 1  eigenvalue: -0.238595
  lMax: 0  lLocal: 1  QijEcut: 6
  2 projectors sampled on a log grid with 395 points:
    l: 0  eig: -0.238595  rCut: 1.2
    l: 0  eig: 1.000000  rCut: 1.2
  Transforming local potential to a uniform radial grid of dG=0.02 with 1464 points.
  Transforming nonlocal projectors to a uniform radial grid of dG=0.02 with 432 points.
  Transforming density augmentations to a uniform radial grid of dG=0.02 with 1464 points.
  Transforming atomic orbitals to a uniform radial grid of dG=0.02 with 432 points.
  Core radius for overlap checks: 1.20 bohrs.

Initialized 5 species with 56 total atoms.

Folded 1 k-points by 3x3x1 to 9 k-points.

---------- Setting up k-points, bands, fillings ----------
No reducable k-points. 
Computing the number of bands and number of electrons
Calculating initial fillings.
nElectrons: 233.000000   nBands: 140   nStates: 18

----- Setting up reduced wavefunction bases (one per k-point) -----
average nbasis = 86412.556 , ideal nbasis = 86404.907

----- Initializing Supercell corresponding to k-point mesh -----
Lattice vector linear combinations in supercell:
[   3   0   0  ]
[   0   3   0  ]
[   0   0   1  ]
Supercell lattice vectors:
[  70.3088  -35.2004  0  ]
[  0.053982  59.8255  0  ]
[  0  0  43.2563  ]

Initializing DFT-D3 calculator:
	Parameters set for gga-PBE functional
	s6:  1.000  s_r6:  1.217
	s8:  0.722  s_r8:  1.000
	Per-atom parameters loaded for:
	 C:  sqrtQ[a0]:  3.105  Rcov[a0]:  1.417  CN: [ 0.00 0.99 2.00 3.00 3.98 ]
	 N:  sqrtQ[a0]:  2.712  Rcov[a0]:  1.342  CN: [ 0.00 0.99 2.01 2.99 ]
	Ti:  sqrtQ[a0]:  6.288  Rcov[a0]:  2.305  CN: [ 0.00 1.83 3.87 ]
	 O:  sqrtQ[a0]:  2.594  Rcov[a0]:  1.191  CN: [ 0.00 0.99 1.99 ]
	 H:  sqrtQ[a0]:  2.007  Rcov[a0]:  0.605  CN: [ 0.91 0.00 ]

Initializing DFT-D2 calculator for fluid / solvation:
	 C:  C6:   30.35 Eh-a0^6  R0: 2.744 a0
	 N:  C6:   21.33 Eh-a0^6  R0: 2.640 a0
	Ti:  C6:  187.33 Eh-a0^6  R0: 2.952 a0
	 O:  C6:   12.14 Eh-a0^6  R0: 2.536 a0
	 H:  C6:    2.43 Eh-a0^6  R0: 1.892 a0

---------- Setting up ewald sum ----------
Optimum gaussian width for ewald sums = 5.557061 bohr.
Real space sum over 567 unit cells with max indices [  4  4  3  ]
Reciprocal space sum over 7803 terms with max indices [  8  8  13  ]

Computing DFT-D3 correction:
# coordination-number C 3.301 3.323 3.336 3.332 3.313 3.291 3.322 3.534 3.329 3.313 3.303 3.341 3.301 3.301 3.323 3.747 3.270 3.303 3.320 3.334 3.326 3.306 3.302 3.331 3.336 3.320 3.301 3.270 3.530 3.323 3.303 3.306 3.317 3.301 3.313 3.327 3.743 3.334 3.292 3.314 3.333 3.333 3.322 3.303 2.989
# coordination-number N 3.171 3.185 3.176 3.186
# coordination-number Ti 6.851
# coordination-number O 2.018 1.171 2.008
# coordination-number H 1.020 0.992 0.993
# diagonal-C6 C 24.27 24.05 23.90 23.95 24.16 24.36 24.06 21.15 23.98 24.15 24.25 23.85 24.27 24.27 24.05 19.00 24.55 24.26 24.08 23.93 24.02 24.23 24.26 23.97 23.91 24.08 24.27 24.55 21.20 24.06 24.26 24.22 24.11 24.27 24.15 24.00 19.02 23.93 24.36 24.14 23.94 23.94 24.06 24.25 25.69
# diagonal-C6 N 15.60 15.60 15.60 15.60
# diagonal-C6 Ti 321.59
# diagonal-C6 O 10.40 12.64 10.41
# diagonal-C6 H 3.08 3.09 3.09
EvdW_6 =   -0.045085
EvdW_8 =   -0.033925

---------- Allocating electronic variables ----------
Initializing wave functions:  linear combination of atomic orbitals
C pseudo-atom occupations:   s ( 2 )  p ( 2 )
N pseudo-atom occupations:   s ( 2 )  p ( 3 )
Ti pseudo-atom occupations:   s ( 2 0 )  p ( 6 )  d ( 4 )
O pseudo-atom occupations:   s ( 2 )  p ( 4 )
H pseudo-atom occupations:   s ( 1 )
	FillingsUpdate:  mu: -0.127200000  nElectrons: 233.000000  magneticMoment: [ Abs: 0.00451  Tot: +0.00003 ]
LCAOMinimize: Iter:   0  G: -369.1759945534391250  |grad|_K:  4.698e-03  alpha:  1.000e+00
	FillingsUpdate:  mu: -0.127200000  nElectrons: 233.000000  magneticMoment: [ Abs: 0.00442  Tot: -0.00003 ]
LCAOMinimize: Iter:   1  G: -371.3520033683867609  |grad|_K:  1.442e-03  alpha:  1.314e-01  linmin: -1.291e-01  cgtest:  1.838e+00  t[s]:    349.37
LCAOMinimize: Encountered beta<0, resetting CG.
LCAOMinimize: 	Predicted alpha/alphaT>3.000000, increasing alphaT to 3.941415e-01.
LCAOMinimize: 	Wrong curvature in test step, increasing alphaT to 1.182425e+00.
	FillingsUpdate:  mu: -0.127200000  nElectrons: 233.000000  magneticMoment: [ Abs: 0.00447  Tot: -0.00003 ]
LCAOMinimize: Iter:   2  G: -372.1494987637806275  |grad|_K:  1.068e-03  alpha: -2.041e+00  linmin: -2.427e-01  cgtest:  2.755e-01  t[s]:    534.58
	FillingsUpdate:  mu: -0.127200000  nElectrons: 233.000000  magneticMoment: [ Abs: 0.00448  Tot: -0.00003 ]
LCAOMinimize: Iter:   3  G: -372.2198944468593709  |grad|_K:  9.298e-04  alpha:  3.412e-02  linmin: -2.647e-01  cgtest:  8.714e-01  t[s]:    683.45
LCAOMinimize: Encountered beta<0, resetting CG.
LCAOMinimize: 	Predicted alpha/alphaT>3.000000, increasing alphaT to 1.023725e-01.
LCAOMinimize: 	Predicted alpha/alphaT>3.000000, increasing alphaT to 3.071174e-01.
	FillingsUpdate:  mu: -0.127200000  nElectrons: 233.000000  magneticMoment: [ Abs: 0.00449  Tot: -0.00004 ]
LCAOMinimize: Iter:   4  G: -372.2554746788331954  |grad|_K:  8.126e-04  alpha:  4.714e-02  linmin: -2.844e-01  cgtest:  9.288e-01  t[s]:    907.39
LCAOMinimize: Encountered beta<0, resetting CG.
LCAOMinimize: 	Predicted alpha/alphaT>3.000000, increasing alphaT to 1.414258e-01.
LCAOMinimize: 	Step increased G by 9.278219e-01, reducing alpha to 3.491733e-02.
	FillingsUpdate:  mu: -0.127200000  nElectrons: 233.000000  magneticMoment: [ Abs: 0.00450  Tot: -0.00004 ]
LCAOMinimize: Iter:   5  G: -372.2755318379452660  |grad|_K:  7.220e-04  alpha:  3.492e-02  linmin: -2.900e-01  cgtest:  9.540e-01  t[s]:   1204.63
LCAOMinimize: Encountered beta<0, resetting CG.
LCAOMinimize: 	Predicted alpha/alphaT>3.000000, increasing alphaT to 1.047520e-01.
LCAOMinimize: 	Predicted alpha/alphaT>3.000000, increasing alphaT to 3.142559e-01.
	FillingsUpdate:  mu: -0.127200000  nElectrons: 233.000000  magneticMoment: [ Abs: 0.00451  Tot: -0.00005 ]
LCAOMinimize: Iter:   6  G: -372.2976977864925630  |grad|_K:  5.831e-04  alpha:  5.116e-02  linmin: -2.935e-01  cgtest:  9.385e-01  t[s]:   1430.73
LCAOMinimize: Encountered beta<0, resetting CG.
LCAOMinimize: 	Predicted alpha/alphaT>3.000000, increasing alphaT to 1.534855e-01.
	FillingsUpdate:  mu: -0.127200000  nElectrons: 233.000000  magneticMoment: [ Abs: 0.00464  Tot: -0.00031 ]
LCAOMinimize: Iter:   7  G: -372.3110599739763416  |grad|_K:  8.738e-04  alpha:  2.240e-01  linmin:  1.580e-01  cgtest: -3.954e-01  t[s]:   1620.46
LCAOMinimize: 	Bad step direction: g.d > 0.
LCAOMinimize: 	Undoing step.
LCAOMinimize: 	Step failed: resetting search direction.
	FillingsUpdate:  mu: -0.127200000  nElectrons: 233.000000  magneticMoment: [ Abs: 0.00464  Tot: -0.00031 ]
LCAOMinimize: Iter:   8  G: -372.3110599739763416  |grad|_K:  8.738e-04  alpha:  0.000e+00
	FillingsUpdate:  mu: -0.127200000  nElectrons: 233.000000  magneticMoment: [ Abs: 0.00455  Tot: -0.00009 ]
LCAOMinimize: Iter:   9  G: -372.3299096677406510  |grad|_K:  1.810e-04  alpha:  1.131e-01  linmin:  1.113e-01  cgtest: -1.398e+00  t[s]:   1882.27
	FillingsUpdate:  mu: -0.127200000  nElectrons: 233.000000  magneticMoment: [ Abs: 0.00457  Tot: -0.00009 ]
LCAOMinimize: Iter:  10  G: -372.3302054013489055  |grad|_K:  1.980e-04  alpha:  1.381e-01  linmin: -3.151e-04  cgtest:  9.768e-01  t[s]:   2034.45
	FillingsUpdate:  mu: -0.127200000  nElectrons: 233.000000  magneticMoment: [ Abs: 0.00460  Tot: -0.00015 ]
LCAOMinimize: Iter:  11  G: -372.3325752175350090  |grad|_K:  5.122e-05  alpha:  1.353e-01  linmin:  9.815e-02  cgtest: -4.288e-01  t[s]:   2184.41
LCAOMinimize: 	Predicted alpha/alphaT>3.000000, increasing alphaT to 4.059887e-01.
	FillingsUpdate:  mu: -0.127200000  nElectrons: 233.000000  magneticMoment: [ Abs: 0.00467  Tot: -0.00019 ]
LCAOMinimize: Iter:  12  G: -372.3329506835810889  |grad|_K:  7.327e-05  alpha:  5.508e-01  linmin:  1.058e-02  cgtest:  6.225e-01  t[s]:   2371.58
	FillingsUpdate:  mu: -0.127200000  nElectrons: 233.000000  magneticMoment: [ Abs: 0.00468  Tot: -0.00017 ]
LCAOMinimize: Iter:  13  G: -372.3332061443999237  |grad|_K:  2.169e-05  alpha:  1.245e-01  linmin:  7.722e-02  cgtest: -3.786e-01  t[s]:   2519.89
LCAOMinimize: 	Predicted alpha/alphaT>3.000000, increasing alphaT to 3.735281e-01.
	FillingsUpdate:  mu: -0.127200000  nElectrons: 233.000000  magneticMoment: [ Abs: 0.00470  Tot: -0.00018 ]
LCAOMinimize: Iter:  14  G: -372.3332449190086209  |grad|_K:  1.325e-05  alpha:  2.901e-01  linmin:  1.310e-02  cgtest:  6.015e-01  t[s]:   2708.27
	FillingsUpdate:  mu: -0.127200000  nElectrons: 233.000000  magneticMoment: [ Abs: 0.00470  Tot: -0.00019 ]
LCAOMinimize: Iter:  15  G: -372.3332563216444555  |grad|_K:  6.397e-06  alpha:  1.272e-01  linmin:  2.039e-03  cgtest:  2.501e-03  t[s]:   2858.11
LCAOMinimize: 	Wrong curvature in test step, increasing alphaT to 3.815295e-01.
	FillingsUpdate:  mu: -0.127200000  nElectrons: 233.000000  magneticMoment: [ Abs: 0.00470  Tot: -0.00020 ]
LCAOMinimize: Iter:  16  G: -372.3332622382082491  |grad|_K:  4.734e-06  alpha: -2.214e-01  linmin: -1.713e-01  cgtest:  9.755e-01  t[s]:   3005.30
LCAOMinimize: Encountered beta<0, resetting CG.
	FillingsUpdate:  mu: -0.127200000  nElectrons: 233.000000  magneticMoment: [ Abs: 0.00471  Tot: -0.00020 ]
LCAOMinimize: Iter:  17  G: -372.3332688035364981  |grad|_K:  7.808e-06  alpha:  4.166e-01  linmin:  3.097e-02  cgtest: -2.742e-01  t[s]:   3153.82
	FillingsUpdate:  mu: -0.127200000  nElectrons: 233.000000  magneticMoment: [ Abs: 0.00472  Tot: -0.00023 ]
LCAOMinimize: Iter:  18  G: -372.3332752428362369  |grad|_K:  7.565e-06  alpha:  2.353e-01  linmin:  3.829e-02  cgtest:  8.166e-01  t[s]:   3303.37
	FillingsUpdate:  mu: -0.127200000  nElectrons: 233.000000  magneticMoment: [ Abs: 0.00472  Tot: -0.00024 ]
LCAOMinimize: Iter:  19  G: -372.3332770334471320  |grad|_K:  2.898e-06  alpha:  8.926e-02  linmin: -1.446e-01  cgtest:  5.931e-01  t[s]:   3453.71
LCAOMinimize: Encountered beta<0, resetting CG.
	FillingsUpdate:  mu: -0.127200000  nElectrons: 233.000000  magneticMoment: [ Abs: 0.00472  Tot: -0.00024 ]
LCAOMinimize: Iter:  20  G: -372.3332773657036228  |grad|_K:  2.380e-06  alpha:  8.923e-02  linmin: -3.530e-01  cgtest:  9.776e-01  t[s]:   3603.68
LCAOMinimize: Encountered beta<0, resetting CG.
	FillingsUpdate:  mu: -0.127200000  nElectrons: 233.000000  magneticMoment: [ Abs: 0.00472  Tot: -0.00024 ]
LCAOMinimize: Iter:  21  G: -372.3332775442406728  |grad|_K:  2.066e-06  alpha:  7.948e-02  linmin: -3.554e-01  cgtest:  9.974e-01  t[s]:   3754.84
LCAOMinimize: Encountered beta<0, resetting CG.
LCAOMinimize: Converged (|Delta G|<1.000000e-06 for 2 iters).
----- createFluidSolver() ----- (Fluid-side solver setup)
   Initializing fluid molecule 'H2O'
     Initializing site 'O'
       Electron density: proportional to exp(-r/0.36935)*erfc((r-0.51523)/0.36823) with norm 6.826
       Charge density: gaussian nuclear width 0.478731 with net site charge 0.826
       Polarizability: cuspless exponential with width 0.32 and norm 3.73
       Hard sphere radius: 2.57003 bohrs
       Positions in reference frame:
         [ +0.000000 +0.000000 +0.000000 ]
     Initializing site 'H'
       Electron density: proportional to exp(-r/0.34641)*erfc((r-0)/0.390882) with norm 0.587
       Charge density: gaussian nuclear width 0.377945 with net site charge -0.413
       Polarizability: cuspless exponential with width 0.39 and norm 3.3
       Positions in reference frame:
         [ +0.000000 -1.441945 +1.122523 ]
         [ +0.000000 +1.441945 +1.122523 ]
     Net charge: 0   dipole magnitude: 0.927204
     Initializing spherical shell mfKernel with radius 2.61727 Bohr
     deltaS corrections:
       site 'O': -7.54299
       site 'H': -6.83917
   Initializing fluid molecule 'Na+'
     Initializing site 'Na'
       Electron density: proportional to exp(-r/0.19682)*erfc((r-0.71491)/0.41314) with norm 8.1383
       Charge density: gaussian nuclear width 0.365347 with net site charge -1
       Hard sphere radius: 1.86327 bohrs
       Positions in reference frame:
         [ +0.000000 +0.000000 +0.000000 ]
     Net charge: -1   dipole magnitude: 0
     Initializing gaussian mfKernel with width: 1.55004 Bohr
     deltaS corrections:
       site 'Na': -22.3555
   Initializing fluid molecule 'F-'
     Initializing site 'F'
       Electron density: proportional to exp(-r/0.38886)*erfc((r-0)/0.438782) with norm 8
       Charge density: gaussian nuclear width 0.374796 with net site charge 1
       Hard sphere radius: 2.39995 bohrs
       Positions in reference frame:
         [ +0.000000 +0.000000 +0.000000 ]
     Net charge: 1   dipole magnitude: 0
     Initializing gaussian mfKernel with width: 1.59012 Bohr
     deltaS corrections:
       site 'F': -9.04335

Correction to mu due to finite nuclear width = -0.0114303
   Cavity determined by nc: 0.00142 and sigma: 0.707107
   Nonlocal vdW cavity from gaussian model electron density with norm = 8 and sigma = 0.993594 bohr
   Charge asymmetry in cavity with sensitivity pCavity = 36.5 e-bohr/Eh
   Electrostatic cavity expanded by eta = 1.46 bohrs
   Weighted density cavitation model constrained by Nbulk: 0.0049383 bohr^-3, Pvap: 3.14029 kPa, Rvdw: 2.61727 bohr and sigmaBulk: 4.62e-05 Eh/bohr^2 at T: 298 K.
   Weighted density dispersion model using vdW pair potentials with single solvent site with sqrtC6eff: 0.77 SI.
WARNING: Vibrations: switching off translationSym and rotationSym since useConstraints is on.

---- Citations for features of the code used in this run ----

   Software package:
      R. Sundararaman, K. Letchworth-Weaver, K.A. Schwarz, D. Gunceler, Y. Ozhabes and T.A. Arias, 'JDFTx: software for joint density-functional theory', SoftwareX 6, 278 (2017)

   gga-PBE exchange-correlation functional:
      J.P. Perdew, K. Burke and M. Ernzerhof, Phys. Rev. Lett. 77, 3865 (1996)

   Pseudopotentials:
      KF Garrity, JW Bennett, KM Rabe and D Vanderbilt, Comput. Mater. Sci. 81, 446 (2014)

   DFT-D3 dispersion correction:
      S. Grimme, J. Antony, S. Ehrlich and H. Krieg, J. Chem. Phys. 132, 154104 (2010)

   DFT-D2 dispersion correction:
      S. Grimme, J. Comput. Chem. 27, 1787 (2006)

   Charge-asymmetric nonlocally-determined local-electric (CANDLE) solvation model:
      R. Sundararaman and W.A. Goddard III, J. Chem. Phys. 142, 064107 (2015)

   Total energy minimization with Auxiliary Hamiltonian:
      C. Freysoldt, S. Boeck, and J. Neugebauer, Phys. Rev. B 79, 241103(R) (2009)

   Grand-canonical (fixed-potential) DFT:
      R. Sundararaman, W. A. Goddard III and T. A. Arias, J. Chem. Phys. 146, 114104 (2017)

   Linear-tetrahedron sampling for density of states:
      G. Lehmann and M. Taut, Phys. status solidi (b) 54, 469 (1972)

This list may not be complete. Please suggest additional citations or
report any other bugs at https://github.com/shankar1729/jdftx/issues

Initialization completed successfully at t[s]:   3775.32

------ Vibrations::calculate() -------
WARNING: Vibrations module is experimental. Please report bugs!
Compare results with and without symmetries and report discrepancies.
Degrees of freedom: 21 total, 21 symmetry-independent.

Computing DFT-D3 correction:
# coordination-number C 3.301 3.323 3.336 3.332 3.313 3.291 3.322 3.534 3.329 3.313 3.303 3.341 3.301 3.301 3.323 3.747 3.270 3.303 3.320 3.334 3.326 3.306 3.302 3.331 3.336 3.320 3.301 3.270 3.530 3.323 3.303 3.306 3.317 3.301 3.313 3.327 3.743 3.334 3.292 3.314 3.333 3.333 3.322 3.303 2.989
# coordination-number N 3.171 3.185 3.176 3.186
# coordination-number Ti 6.851
# coordination-number O 2.018 1.171 2.008
# coordination-number H 1.020 0.992 0.993
# diagonal-C6 C 24.27 24.05 23.90 23.95 24.16 24.36 24.06 21.15 23.98 24.15 24.25 23.85 24.27 24.27 24.05 19.00 24.55 24.26 24.08 23.93 24.02 24.23 24.26 23.97 23.91 24.08 24.27 24.55 21.20 24.06 24.26 24.22 24.11 24.27 24.15 24.00 19.02 23.93 24.36 24.14 23.94 23.94 24.06 24.25 25.69
# diagonal-C6 N 15.60 15.60 15.60 15.60
# diagonal-C6 Ti 321.59
# diagonal-C6 O 10.40 12.64 10.41
# diagonal-C6 H 3.08 3.09 3.09
EvdW_6 =   -0.045085
EvdW_8 =   -0.033925
Fluid solver invoked on fresh (random / LCAO) wavefunctions
Running a vacuum solve first:

-------- Initial electronic minimization -----------
	FillingsUpdate:  mu: -0.189647969  nElectrons: 233.000000  magneticMoment: [ Abs: 0.00472  Tot: -0.00024 ]
ElecMinimize: Iter:   0  G: -372.332774817871893  |grad|_K:  1.440e-04  alpha:  1.000e+00
	FillingsUpdate:  mu: -0.128618386  nElectrons: 233.000000  magneticMoment: [ Abs: 0.00268  Tot: -0.00025 ]
	SubspaceRotationAdjust: set factor to 1
ElecMinimize: Iter:   1  G: -375.372219454816047  |grad|_K:  4.849e-05  alpha:  6.809e-01  linmin:  2.394e-03  t[s]:   4019.21
	FillingsUpdate:  mu: -0.062402251  nElectrons: 233.000000  magneticMoment: [ Abs: 0.00299  Tot: -0.00094 ]
	SubspaceRotationAdjust: set factor to 0.716
ElecMinimize: Iter:   2  G: -375.453715043852583  |grad|_K:  4.193e-05  alpha:  1.040e-01  linmin: -7.892e-04  t[s]:   4168.26
ElecMinimize: 	Predicted alpha/alphaT>3.000000, increasing alphaT to 3.120134e-01.
	FillingsUpdate:  mu: -0.070856939  nElectrons: 233.000000  magneticMoment: [ Abs: 0.00387  Tot: -0.00282 ]
	SubspaceRotationAdjust: set factor to 0.5
ElecMinimize: Iter:   3  G: -375.618057978852562  |grad|_K:  4.049e-05  alpha:  3.346e-01  linmin: -3.943e-05  t[s]:   4355.30
	FillingsUpdate:  mu: -0.103089597  nElectrons: 233.000000  magneticMoment: [ Abs: 0.00318  Tot: -0.00261 ]
	SubspaceRotationAdjust: set factor to 0.314
ElecMinimize: Iter:   4  G: -375.654635761282805  |grad|_K:  2.145e-05  alpha:  1.349e-01  linmin:  3.161e-04  t[s]:   4504.06
ElecMinimize: 	Predicted alpha/alphaT>3.000000, increasing alphaT to 4.046139e-01.
	FillingsUpdate:  mu: -0.116639232  nElectrons: 233.000000  magneticMoment: [ Abs: 0.00395  Tot: -0.00368 ]
	SubspaceRotationAdjust: set factor to 0.444
ElecMinimize: Iter:   5  G: -375.692262734593157  |grad|_K:  1.553e-05  alpha:  4.683e-01  linmin: -1.430e-06  t[s]:   4689.61
	FillingsUpdate:  mu: -0.071225918  nElectrons: 233.000000  magneticMoment: [ Abs: 0.00615  Tot: -0.00590 ]
	SubspaceRotationAdjust: set factor to 0.366
ElecMinimize: Iter:   6  G: -375.708685471699653  |grad|_K:  9.076e-06  alpha:  3.090e-01  linmin:  1.357e-06  t[s]:   4838.66
	FillingsUpdate:  mu: -0.070326243  nElectrons: 233.000000  magneticMoment: [ Abs: 0.00924  Tot: -0.00894 ]
	SubspaceRotationAdjust: set factor to 0.424
ElecMinimize: Iter:   7  G: -375.718266954344472  |grad|_K:  6.159e-06  alpha:  5.338e-01  linmin: -2.047e-06  t[s]:   4987.14
	FillingsUpdate:  mu: -0.084205086  nElectrons: 233.000000  magneticMoment: [ Abs: 0.01166  Tot: -0.01126 ]
	SubspaceRotationAdjust: set factor to 0.362
ElecMinimize: Iter:   8  G: -375.721736399661836  |grad|_K:  4.766e-06  alpha:  4.207e-01  linmin: -9.418e-06  t[s]:   5135.94
	FillingsUpdate:  mu: -0.074724667  nElectrons: 233.000000  magneticMoment: [ Abs: 0.01664  Tot: -0.01610 ]
	SubspaceRotationAdjust: set factor to 0.354
ElecMinimize: Iter:   9  G: -375.723397869157509  |grad|_K:  2.401e-06  alpha:  3.338e-01  linmin:  9.086e-06  t[s]:   5284.63
	FillingsUpdate:  mu: -0.073839210  nElectrons: 233.000000  magneticMoment: [ Abs: 0.02544  Tot: -0.02461 ]
	SubspaceRotationAdjust: set factor to 0.378
ElecMinimize: Iter:  10  G: -375.724189586680097  |grad|_K:  1.891e-06  alpha:  6.330e-01  linmin:  3.592e-06  t[s]:   5433.49
	FillingsUpdate:  mu: -0.077478913  nElectrons: 233.000000  magneticMoment: [ Abs: 0.03429  Tot: -0.03314 ]
	SubspaceRotationAdjust: set factor to 0.309
ElecMinimize: Iter:  11  G: -375.724502573714631  |grad|_K:  1.353e-06  alpha:  4.034e-01  linmin:  5.574e-07  t[s]:   5582.51
	FillingsUpdate:  mu: -0.075287475  nElectrons: 233.000000  magneticMoment: [ Abs: 0.04952  Tot: -0.04789 ]
	SubspaceRotationAdjust: set factor to 0.301
ElecMinimize: Iter:  12  G: -375.724673747828319  |grad|_K:  8.804e-07  alpha:  4.292e-01  linmin:  1.540e-06  t[s]:   5730.83
	FillingsUpdate:  mu: -0.074818077  nElectrons: 233.000000  magneticMoment: [ Abs: 0.07593  Tot: -0.07334 ]
	SubspaceRotationAdjust: set factor to 0.334
ElecMinimize: Iter:  13  G: -375.724781150535193  |grad|_K:  6.952e-07  alpha:  6.369e-01  linmin:  1.881e-06  t[s]:   5879.17
	FillingsUpdate:  mu: -0.076367283  nElectrons: 233.000000  magneticMoment: [ Abs: 0.10882  Tot: -0.10499 ]
	SubspaceRotationAdjust: set factor to 0.354
ElecMinimize: Iter:  14  G: -375.724836159219421  |grad|_K:  6.850e-07  alpha:  5.237e-01  linmin: -2.917e-06  t[s]:   6027.92
	FillingsUpdate:  mu: -0.075432425  nElectrons: 233.000000  magneticMoment: [ Abs: 0.22462  Tot: -0.21649 ]
	SubspaceRotationAdjust: set factor to 0.399
ElecMinimize: Iter:  15  G: -375.724929397390895  |grad|_K:  1.124e-06  alpha:  9.667e-01  linmin:  1.195e-04  t[s]:   6176.52
	FillingsUpdate:  mu: -0.075137396  nElectrons: 233.000000  magneticMoment: [ Abs: 0.36059  Tot: -0.34643 ]
	SubspaceRotationAdjust: set factor to 0.456
ElecMinimize: Iter:  16  G: -375.725051655329139  |grad|_K:  1.638e-06  alpha:  3.517e-01  linmin: -2.321e-04  t[s]:   6325.33
	FillingsUpdate:  mu: -0.075279476  nElectrons: 233.000000  magneticMoment: [ Abs: 0.49437  Tot: -0.47032 ]
	SubspaceRotationAdjust: set factor to 0.571
ElecMinimize: Iter:  17  G: -375.725204046970077  |grad|_K:  1.862e-06  alpha:  1.935e-01  linmin:  3.133e-06  t[s]:   6474.39
	FillingsUpdate:  mu: -0.076294742  nElectrons: 233.000000  magneticMoment: [ Abs: 0.55380  Tot: -0.51992 ]
	SubspaceRotationAdjust: set factor to 0.751
ElecMinimize: Iter:  18  G: -375.725275810591654  |grad|_K:  1.743e-06  alpha:  1.031e-01  linmin:  3.858e-05  t[s]:   6623.19
	FillingsUpdate:  mu: -0.078268295  nElectrons: 233.000000  magneticMoment: [ Abs: 0.58466  Tot: -0.54030 ]
	SubspaceRotationAdjust: set factor to 0.877
ElecMinimize: Iter:  19  G: -375.725334507068283  |grad|_K:  1.565e-06  alpha:  9.215e-02  linmin: -6.257e-05  t[s]:   6771.69
	FillingsUpdate:  mu: -0.080306054  nElectrons: 233.000000  magneticMoment: [ Abs: 0.60955  Tot: -0.55046 ]
	SubspaceRotationAdjust: set factor to 1.02
ElecMinimize: Iter:  20  G: -375.725400457227579  |grad|_K:  1.642e-06  alpha:  1.183e-01  linmin: -1.210e-04  t[s]:   6920.36
	FillingsUpdate:  mu: -0.079859827  nElectrons: 233.000000  magneticMoment: [ Abs: 0.63758  Tot: -0.55477 ]
	SubspaceRotationAdjust: set factor to 1.42
ElecMinimize: Iter:  21  G: -375.725479886295716  |grad|_K:  1.394e-06  alpha:  1.281e-01  linmin: -4.176e-05  t[s]:   7068.92
	FillingsUpdate:  mu: -0.077687036  nElectrons: 233.000000  magneticMoment: [ Abs: 0.65554  Tot: -0.55593 ]
	SubspaceRotationAdjust: set factor to 1.37
ElecMinimize: Iter:  22  G: -375.725523642431256  |grad|_K:  1.171e-06  alpha:  1.004e-01  linmin: -2.051e-06  t[s]:   7217.66
	FillingsUpdate:  mu: -0.076650311  nElectrons: 233.000000  magneticMoment: [ Abs: 0.67616  Tot: -0.55701 ]
	SubspaceRotationAdjust: set factor to 1.6
ElecMinimize: Iter:  23  G: -375.725572784543203  |grad|_K:  1.319e-06  alpha:  1.642e-01  linmin:  2.178e-07  t[s]:   7366.26
	FillingsUpdate:  mu: -0.078185987  nElectrons: 233.000000  magneticMoment: [ Abs: 0.68908  Tot: -0.55746 ]
	SubspaceRotationAdjust: set factor to 1.75
ElecMinimize: Iter:  24  G: -375.725611286417347  |grad|_K:  1.034e-06  alpha:  1.024e-01  linmin:  5.269e-07  t[s]:   7514.87
	FillingsUpdate:  mu: -0.079854990  nElectrons: 233.000000  magneticMoment: [ Abs: 0.69683  Tot: -0.55735 ]
	SubspaceRotationAdjust: set factor to 1.5
ElecMinimize: Iter:  25  G: -375.725648477857476  |grad|_K:  1.346e-06  alpha:  1.596e-01  linmin: -1.815e-06  t[s]:   7662.88
	FillingsUpdate:  mu: -0.078423324  nElectrons: 233.000000  magneticMoment: [ Abs: 0.70549  Tot: -0.55741 ]
	SubspaceRotationAdjust: set factor to 2.17
ElecMinimize: Iter:  26  G: -375.725690750627962  |grad|_K:  1.003e-06  alpha:  1.066e-01  linmin: -1.170e-07  t[s]:   7811.37
	FillingsUpdate:  mu: -0.076705986  nElectrons: 233.000000  magneticMoment: [ Abs: 0.70748  Tot: -0.55713 ]
	SubspaceRotationAdjust: set factor to 1.79
ElecMinimize: Iter:  27  G: -375.725723263976818  |grad|_K:  1.339e-06  alpha:  1.486e-01  linmin:  2.361e-06  t[s]:   7960.12
	FillingsUpdate:  mu: -0.077780117  nElectrons: 233.000000  magneticMoment: [ Abs: 0.70100  Tot: -0.55614 ]
	SubspaceRotationAdjust: set factor to 2.6
ElecMinimize: Iter:  28  G: -375.725763024479704  |grad|_K:  1.003e-06  alpha:  1.020e-01  linmin: -2.833e-06  t[s]:   8109.05
	FillingsUpdate:  mu: -0.079315461  nElectrons: 233.000000  magneticMoment: [ Abs: 0.69026  Tot: -0.55534 ]
	SubspaceRotationAdjust: set factor to 2.33
ElecMinimize: Iter:  29  G: -375.725794956336529  |grad|_K:  1.338e-06  alpha:  1.455e-01  linmin:  2.295e-06  t[s]:   8257.83
	FillingsUpdate:  mu: -0.077817465  nElectrons: 233.000000  magneticMoment: [ Abs: 0.68073  Tot: -0.55473 ]
	SubspaceRotationAdjust: set factor to 2.6
ElecMinimize: Iter:  30  G: -375.725825216713986  |grad|_K:  9.192e-07  alpha:  7.676e-02  linmin: -3.803e-06  t[s]:   8406.60
	FillingsUpdate:  mu: -0.076603459  nElectrons: 233.000000  magneticMoment: [ Abs: 0.67040  Tot: -0.55425 ]
	SubspaceRotationAdjust: set factor to 2.23
ElecMinimize: Iter:  31  G: -375.725851472230772  |grad|_K:  1.185e-06  alpha:  1.419e-01  linmin:  3.015e-06  t[s]:   8555.01
	FillingsUpdate:  mu: -0.077836221  nElectrons: 233.000000  magneticMoment: [ Abs: 0.66053  Tot: -0.55370 ]
	SubspaceRotationAdjust: set factor to 2.54
ElecMinimize: Iter:  32  G: -375.725872046483232  |grad|_K:  8.422e-07  alpha:  6.754e-02  linmin: -1.689e-06  t[s]:   8703.85
	FillingsUpdate:  mu: -0.078853121  nElectrons: 233.000000  magneticMoment: [ Abs: 0.65322  Tot: -0.55385 ]
	SubspaceRotationAdjust: set factor to 1.99
ElecMinimize: Iter:  33  G: -375.725894485581648  |grad|_K:  1.082e-06  alpha:  1.443e-01  linmin: -2.623e-06  t[s]:   8852.68
	FillingsUpdate:  mu: -0.077646648  nElectrons: 233.000000  magneticMoment: [ Abs: 0.65168  Tot: -0.55449 ]
	SubspaceRotationAdjust: set factor to 2.45
ElecMinimize: Iter:  34  G: -375.725911033377770  |grad|_K:  7.532e-07  alpha:  6.478e-02  linmin:  1.125e-07  t[s]:   9001.08
	FillingsUpdate:  mu: -0.076825462  nElectrons: 233.000000  magneticMoment: [ Abs: 0.65312  Tot: -0.55524 ]
	SubspaceRotationAdjust: set factor to 2
ElecMinimize: Iter:  35  G: -375.725930060153473  |grad|_K:  1.001e-06  alpha:  1.535e-01  linmin: -3.525e-06  t[s]:   9149.53
	FillingsUpdate:  mu: -0.077918663  nElectrons: 233.000000  magneticMoment: [ Abs: 0.65432  Tot: -0.55554 ]
	SubspaceRotationAdjust: set factor to 2.31
ElecMinimize: Iter:  36  G: -375.725944207960083  |grad|_K:  6.620e-07  alpha:  6.515e-02  linmin:  2.696e-06  t[s]:   9298.12
	FillingsUpdate:  mu: -0.078690889  nElectrons: 233.000000  magneticMoment: [ Abs: 0.65744  Tot: -0.55572 ]
	SubspaceRotationAdjust: set factor to 2.06
ElecMinimize: Iter:  37  G: -375.725957246628582  |grad|_K:  8.116e-07  alpha:  1.369e-01  linmin: -2.470e-06  t[s]:   9446.37
	FillingsUpdate:  mu: -0.077752876  nElectrons: 233.000000  magneticMoment: [ Abs: 0.66168  Tot: -0.55593 ]
	SubspaceRotationAdjust: set factor to 2.28
ElecMinimize: Iter:  38  G: -375.725967405027745  |grad|_K:  5.497e-07  alpha:  7.043e-02  linmin:  8.549e-08  t[s]:   9595.10
	FillingsUpdate:  mu: -0.077069136  nElectrons: 233.000000  magneticMoment: [ Abs: 0.66533  Tot: -0.55595 ]
	SubspaceRotationAdjust: set factor to 1.99
ElecMinimize: Iter:  39  G: -375.725976644006664  |grad|_K:  6.954e-07  alpha:  1.404e-01  linmin: -3.277e-08  t[s]:   9742.61
	FillingsUpdate:  mu: -0.077825832  nElectrons: 233.000000  magneticMoment: [ Abs: 0.66666  Tot: -0.55577 ]
	SubspaceRotationAdjust: set factor to 2.42
ElecMinimize: Iter:  40  G: -375.725984452958983  |grad|_K:  4.783e-07  alpha:  7.419e-02  linmin:  3.775e-07  t[s]:   9890.74
	FillingsUpdate:  mu: -0.078535519  nElectrons: 233.000000  magneticMoment: [ Abs: 0.66648  Tot: -0.55554 ]
	SubspaceRotationAdjust: set factor to 1.96
ElecMinimize: Iter:  41  G: -375.725991550700826  |grad|_K:  6.412e-07  alpha:  1.424e-01  linmin: -5.506e-07  t[s]:  10039.25
	FillingsUpdate:  mu: -0.077863986  nElectrons: 233.000000  magneticMoment: [ Abs: 0.66657  Tot: -0.55541 ]
	SubspaceRotationAdjust: set factor to 2.54
ElecMinimize: Iter:  42  G: -375.725998139542753  |grad|_K:  4.273e-07  alpha:  7.329e-02  linmin: -9.543e-07  t[s]:  10188.02
	FillingsUpdate:  mu: -0.077230882  nElectrons: 233.000000  magneticMoment: [ Abs: 0.66521  Tot: -0.55531 ]
	SubspaceRotationAdjust: set factor to 2.28
ElecMinimize: Iter:  43  G: -375.726003559052401  |grad|_K:  5.666e-07  alpha:  1.363e-01  linmin:  1.278e-06  t[s]:  10336.72
	FillingsUpdate:  mu: -0.077775465  nElectrons: 233.000000  magneticMoment: [ Abs: 0.66197  Tot: -0.55511 ]
	SubspaceRotationAdjust: set factor to 2.54
ElecMinimize: Iter:  44  G: -375.726008605977881  |grad|_K:  3.968e-07  alpha:  7.225e-02  linmin: -3.139e-07  t[s]:  10485.53
	FillingsUpdate:  mu: -0.078344312  nElectrons: 233.000000  magneticMoment: [ Abs: 0.65788  Tot: -0.55498 ]
	SubspaceRotationAdjust: set factor to 2.06
ElecMinimize: Iter:  45  G: -375.726013377756829  |grad|_K:  5.396e-07  alpha:  1.390e-01  linmin:  6.627e-07  t[s]:  10633.86
	FillingsUpdate:  mu: -0.077790920  nElectrons: 233.000000  magneticMoment: [ Abs: 0.65495  Tot: -0.55502 ]
	SubspaceRotationAdjust: set factor to 2.6
ElecMinimize: Iter:  46  G: -375.726017804433013  |grad|_K:  3.560e-07  alpha:  6.961e-02  linmin: -1.100e-06  t[s]:  10782.72
	FillingsUpdate:  mu: -0.077305876  nElectrons: 233.000000  magneticMoment: [ Abs: 0.65294  Tot: -0.55514 ]
	SubspaceRotationAdjust: set factor to 2.12
ElecMinimize: Iter:  47  G: -375.726021566282611  |grad|_K:  4.818e-07  alpha:  1.360e-01  linmin:  1.734e-06  t[s]:  10931.51
	FillingsUpdate:  mu: -0.077805143  nElectrons: 233.000000  magneticMoment: [ Abs: 0.65083  Tot: -0.55519 ]
	SubspaceRotationAdjust: set factor to 2.68
ElecMinimize: Iter:  48  G: -375.726025060438076  |grad|_K:  3.232e-07  alpha:  6.923e-02  linmin:  2.497e-07  t[s]:  11080.02
	FillingsUpdate:  mu: -0.078271833  nElectrons: 233.000000  magneticMoment: [ Abs: 0.65028  Tot: -0.55527 ]
	SubspaceRotationAdjust: set factor to 2.25
ElecMinimize: Iter:  49  G: -375.726028218634610  |grad|_K:  4.406e-07  alpha:  1.386e-01  linmin: -1.136e-06  t[s]:  11229.74
	FillingsUpdate:  mu: -0.077814989  nElectrons: 233.000000  magneticMoment: [ Abs: 0.65139  Tot: -0.55542 ]
	SubspaceRotationAdjust: set factor to 2.51
ElecMinimize: Iter:  50  G: -375.726031054487976  |grad|_K:  2.970e-07  alpha:  6.693e-02  linmin:  1.156e-07  t[s]:  11378.73
	FillingsUpdate:  mu: -0.077422249  nElectrons: 233.000000  magneticMoment: [ Abs: 0.65379  Tot: -0.55553 ]
	SubspaceRotationAdjust: set factor to 2.07
ElecMinimize: Iter:  51  G: -375.726033826833941  |grad|_K:  4.087e-07  alpha:  1.442e-01  linmin: -3.627e-07  t[s]:  11527.35
	FillingsUpdate:  mu: -0.077873282  nElectrons: 233.000000  magneticMoment: [ Abs: 0.65584  Tot: -0.55552 ]
	SubspaceRotationAdjust: set factor to 2.49
ElecMinimize: Iter:  52  G: -375.726036440969324  |grad|_K:  2.836e-07  alpha:  7.184e-02  linmin:  2.621e-07  t[s]:  11676.29
	FillingsUpdate:  mu: -0.078280617  nElectrons: 233.000000  magneticMoment: [ Abs: 0.65819  Tot: -0.55548 ]
	SubspaceRotationAdjust: set factor to 2.05
ElecMinimize: Iter:  53  G: -375.726038913795264  |grad|_K:  3.739e-07  alpha:  1.411e-01  linmin: -4.162e-07  t[s]:  11825.39
	FillingsUpdate:  mu: -0.077896254  nElectrons: 233.000000  magneticMoment: [ Abs: 0.66083  Tot: -0.55549 ]
	SubspaceRotationAdjust: set factor to 2.55
ElecMinimize: Iter:  54  G: -375.726041022341064  |grad|_K:  2.485e-07  alpha:  6.911e-02  linmin: -7.532e-07  t[s]:  11974.56
	FillingsUpdate:  mu: -0.077567855  nElectrons: 233.000000  magneticMoment: [ Abs: 0.66273  Tot: -0.55548 ]
	SubspaceRotationAdjust: set factor to 2.16
ElecMinimize: Iter:  55  G: -375.726042876137285  |grad|_K:  3.240e-07  alpha:  1.377e-01  linmin:  2.515e-07  t[s]:  12123.59
	FillingsUpdate:  mu: -0.077901962  nElectrons: 233.000000  magneticMoment: [ Abs: 0.66335  Tot: -0.55541 ]
	SubspaceRotationAdjust: set factor to 2.53
ElecMinimize: Iter:  56  G: -375.726044388382093  |grad|_K:  2.096e-07  alpha:  6.610e-02  linmin: -1.976e-07  t[s]:  12272.50
	FillingsUpdate:  mu: -0.078189124  nElectrons: 233.000000  magneticMoment: [ Abs: 0.66310  Tot: -0.55536 ]
	SubspaceRotationAdjust: set factor to 2.13
ElecMinimize: Iter:  57  G: -375.726045660445038  |grad|_K:  2.739e-07  alpha:  1.328e-01  linmin:  3.397e-08  t[s]:  12421.66
	FillingsUpdate:  mu: -0.077903121  nElectrons: 233.000000  magneticMoment: [ Abs: 0.66294  Tot: -0.55537 ]
	SubspaceRotationAdjust: set factor to 2.57
ElecMinimize: Iter:  58  G: -375.726046786690745  |grad|_K:  1.814e-07  alpha:  6.878e-02  linmin: -2.497e-07  t[s]:  12570.37
	FillingsUpdate:  mu: -0.077648884  nElectrons: 233.000000  magneticMoment: [ Abs: 0.66223  Tot: -0.55539 ]
	SubspaceRotationAdjust: set factor to 2.12
ElecMinimize: Iter:  59  G: -375.726047724278430  |grad|_K:  2.362e-07  alpha:  1.308e-01  linmin:  7.344e-07  t[s]:  12719.48
	FillingsUpdate:  mu: -0.077876983  nElectrons: 233.000000  magneticMoment: [ Abs: 0.66097  Tot: -0.55536 ]
	SubspaceRotationAdjust: set factor to 2.62
ElecMinimize: Iter:  60  G: -375.726048556336423  |grad|_K:  1.591e-07  alpha:  6.849e-02  linmin: -2.931e-07  t[s]:  12868.41
	FillingsUpdate:  mu: -0.078088923  nElectrons: 233.000000  magneticMoment: [ Abs: 0.65967  Tot: -0.55535 ]
	SubspaceRotationAdjust: set factor to 2.21
ElecMinimize: Iter:  61  G: -375.726049330330738  |grad|_K:  2.202e-07  alpha:  1.402e-01  linmin:  2.712e-08  t[s]:  13017.57
	FillingsUpdate:  mu: -0.077845598  nElectrons: 233.000000  magneticMoment: [ Abs: 0.65894  Tot: -0.55539 ]
	SubspaceRotationAdjust: set factor to 2.61
ElecMinimize: Iter:  62  G: -375.726050054226505  |grad|_K:  1.467e-07  alpha:  6.853e-02  linmin: -8.768e-08  t[s]:  13166.50
	FillingsUpdate:  mu: -0.077629959  nElectrons: 233.000000  magneticMoment: [ Abs: 0.65865  Tot: -0.55542 ]
	SubspaceRotationAdjust: set factor to 2.3
ElecMinimize: Iter:  63  G: -375.726050676808541  |grad|_K:  1.969e-07  alpha:  1.328e-01  linmin:  3.157e-07  t[s]:  13315.84
	FillingsUpdate:  mu: -0.077826455  nElectrons: 233.000000  magneticMoment: [ Abs: 0.65825  Tot: -0.55541 ]
	SubspaceRotationAdjust: set factor to 2.55
ElecMinimize: Iter:  64  G: -375.726051275737291  |grad|_K:  1.402e-07  alpha:  7.097e-02  linmin:  3.196e-08  t[s]:  13464.61
	FillingsUpdate:  mu: -0.078028044  nElectrons: 233.000000  magneticMoment: [ Abs: 0.65829  Tot: -0.55539 ]
	SubspaceRotationAdjust: set factor to 2.07
ElecMinimize: Iter:  65  G: -375.726051884195499  |grad|_K:  1.945e-07  alpha:  1.421e-01  linmin: -2.195e-08  t[s]:  13613.67
	FillingsUpdate:  mu: -0.077827925  nElectrons: 233.000000  magneticMoment: [ Abs: 0.65889  Tot: -0.55540 ]
	SubspaceRotationAdjust: set factor to 2.58
ElecMinimize: Iter:  66  G: -375.726052469470517  |grad|_K:  1.339e-07  alpha:  7.096e-02  linmin: -1.497e-07  t[s]:  13762.60
	FillingsUpdate:  mu: -0.077641309  nElectrons: 233.000000  magneticMoment: [ Abs: 0.65968  Tot: -0.55541 ]
	SubspaceRotationAdjust: set factor to 2.17
ElecMinimize: Iter:  67  G: -375.726053022478595  |grad|_K:  1.837e-07  alpha:  1.415e-01  linmin:  3.387e-08  t[s]:  13911.84
	FillingsUpdate:  mu: -0.077832996  nElectrons: 233.000000  magneticMoment: [ Abs: 0.66012  Tot: -0.55538 ]
	SubspaceRotationAdjust: set factor to 2.67
ElecMinimize: Iter:  68  G: -375.726053530314289  |grad|_K:  1.207e-07  alpha:  6.905e-02  linmin: -1.151e-07  t[s]:  14060.11
	FillingsUpdate:  mu: -0.078000881  nElectrons: 233.000000  magneticMoment: [ Abs: 0.66040  Tot: -0.55536 ]
	SubspaceRotationAdjust: set factor to 2.33
ElecMinimize: Iter:  69  G: -375.726053934927904  |grad|_K:  1.529e-07  alpha:  1.275e-01  linmin:  2.106e-07  t[s]:  14209.18
	FillingsUpdate:  mu: -0.077849508  nElectrons: 233.000000  magneticMoment: [ Abs: 0.66080  Tot: -0.55537 ]
	SubspaceRotationAdjust: set factor to 2.48
ElecMinimize: Iter:  70  G: -375.726054261690877  |grad|_K:  1.002e-07  alpha:  6.415e-02  linmin: -1.367e-07  t[s]:  14358.06
	FillingsUpdate:  mu: -0.077719159  nElectrons: 233.000000  magneticMoment: [ Abs: 0.66090  Tot: -0.55539 ]
	SubspaceRotationAdjust: set factor to 2.13
ElecMinimize: Iter:  71  G: -375.726054558362819  |grad|_K:  1.323e-07  alpha:  1.356e-01  linmin:  2.598e-07  t[s]:  14509.01
	FillingsUpdate:  mu: -0.077858951  nElectrons: 233.000000  magneticMoment: [ Abs: 0.66062  Tot: -0.55539 ]
	SubspaceRotationAdjust: set factor to 2.59
ElecMinimize: Iter:  72  G: -375.726054826763630  |grad|_K:  8.957e-08  alpha:  7.040e-02  linmin: -5.008e-08  t[s]:  14658.91
	FillingsUpdate:  mu: -0.077981251  nElectrons: 233.000000  magneticMoment: [ Abs: 0.66017  Tot: -0.55538 ]
	SubspaceRotationAdjust: set factor to 2.17
ElecMinimize: Iter:  73  G: -375.726055061955094  |grad|_K:  1.193e-07  alpha:  1.346e-01  linmin:  1.527e-07  t[s]:  14808.22
	FillingsUpdate:  mu: -0.077855612  nElectrons: 233.000000  magneticMoment: [ Abs: 0.65991  Tot: -0.55540 ]
	SubspaceRotationAdjust: set factor to 2.66
ElecMinimize: Iter:  74  G: -375.726055272969461  |grad|_K:  7.864e-08  alpha:  6.808e-02  linmin: -5.213e-08  t[s]:  14957.16
	FillingsUpdate:  mu: -0.077745547  nElectrons: 233.000000  magneticMoment: [ Abs: 0.65966  Tot: -0.55541 ]
	SubspaceRotationAdjust: set factor to 2.39
ElecMinimize: Iter:  75  G: -375.726055448902457  |grad|_K:  1.026e-07  alpha:  1.306e-01  linmin:  1.585e-07  t[s]:  15106.20
	FillingsUpdate:  mu: -0.077849078  nElectrons: 233.000000  magneticMoment: [ Abs: 0.65928  Tot: -0.55540 ]
	SubspaceRotationAdjust: set factor to 2.48
ElecMinimize: Iter:  76  G: -375.726055600723100  |grad|_K:  6.979e-08  alpha:  6.619e-02  linmin:  9.519e-09  t[s]:  15255.47
	FillingsUpdate:  mu: -0.077945334  nElectrons: 233.000000  magneticMoment: [ Abs: 0.65900  Tot: -0.55539 ]
	SubspaceRotationAdjust: set factor to 2.12
ElecMinimize: Iter:  77  G: -375.726055748878196  |grad|_K:  9.455e-08  alpha:  1.392e-01  linmin: -1.072e-06  t[s]:  15404.71
	FillingsUpdate:  mu: -0.077845194  nElectrons: 233.000000  magneticMoment: [ Abs: 0.65896  Tot: -0.55539 ]
	SubspaceRotationAdjust: set factor to 2.55
ElecMinimize: Iter:  78  G: -375.726055888701978  |grad|_K:  6.385e-08  alpha:  7.153e-02  linmin: -2.461e-08  t[s]:  15553.51
	FillingsUpdate:  mu: -0.077753503  nElectrons: 233.000000  magneticMoment: [ Abs: 0.65907  Tot: -0.55539 ]
	SubspaceRotationAdjust: set factor to 2.23
ElecMinimize: Iter:  79  G: -375.726056008848616  |grad|_K:  8.529e-08  alpha:  1.351e-01  linmin: -2.848e-07  t[s]:  15702.83
	FillingsUpdate:  mu: -0.077840332  nElectrons: 233.000000  magneticMoment: [ Abs: 0.65908  Tot: -0.55537 ]
	SubspaceRotationAdjust: set factor to 2.6
ElecMinimize: Iter:  80  G: -375.726056125101366  |grad|_K:  6.133e-08  alpha:  7.330e-02  linmin:  2.333e-08  t[s]:  15851.63
	FillingsUpdate:  mu: -0.077925289  nElectrons: 233.000000  magneticMoment: [ Abs: 0.65922  Tot: -0.55536 ]
	SubspaceRotationAdjust: set factor to 2.27
ElecMinimize: Iter:  81  G: -375.726056242758034  |grad|_K:  8.339e-08  alpha:  1.438e-01  linmin:  3.960e-07  t[s]:  16000.36
	FillingsUpdate:  mu: -0.077838894  nElectrons: 233.000000  magneticMoment: [ Abs: 0.65951  Tot: -0.55537 ]
	SubspaceRotationAdjust: set factor to 2.45
ElecMinimize: Iter:  82  G: -375.726056342974800  |grad|_K:  5.539e-08  alpha:  6.616e-02  linmin: -6.079e-08  t[s]:  16149.15
	FillingsUpdate:  mu: -0.077766621  nElectrons: 233.000000  magneticMoment: [ Abs: 0.65979  Tot: -0.55538 ]
	SubspaceRotationAdjust: set factor to 2.19
ElecMinimize: Iter:  83  G: -375.726056432824294  |grad|_K:  7.227e-08  alpha:  1.349e-01  linmin:  9.702e-07  t[s]:  16298.64
	FillingsUpdate:  mu: -0.077843550  nElectrons: 233.000000  magneticMoment: [ Abs: 0.65989  Tot: -0.55538 ]
	SubspaceRotationAdjust: set factor to 2.52
ElecMinimize: Iter:  84  G: -375.726056512631146  |grad|_K:  4.933e-08  alpha:  7.038e-02  linmin:  1.646e-08  t[s]:  16447.23
ElecMinimize: Converged (|Delta G|<1.000000e-07 for 2 iters).
Setting wave functions to eigenvectors of Hamiltonian
Converging empty states (this may take a while): |deigs|: 3.710e-03
Vacuum energy after initial minimize, F = -375.726056512631146

Shifting auxilliary hamiltonian by -0.049356 to set nElectrons=233.000000

-------- Electronic minimization -----------
	Linear fluid (dielectric constant: 78.4, screening length: 8.12261 Bohr) occupying 0.706678 of unit cell:	Completed after 23 iterations at t[s]:  17352.96
	FillingsUpdate:  mu: -0.127200000  nElectrons: 233.000000  magneticMoment: [ Abs: 0.65970  Tot: -0.55538 ]
ElecMinimize: Iter:   0  G: -375.733904329293466  |grad|_K:  1.635e-05  alpha:  1.000e+00
	Linear fluid (dielectric constant: 78.4, screening length: 8.12261 Bohr) occupying 0.781419 of unit cell:	Completed after 34 iterations at t[s]:  17510.99
	Linear fluid (dielectric constant: 78.4, screening length: 8.12261 Bohr) occupying 0.707154 of unit cell:	Completed after 24 iterations at t[s]:  17577.98
	FillingsUpdate:  mu: -0.127200000  nElectrons: 233.120577  magneticMoment: [ Abs: 0.76866  Tot: -0.67471 ]
	SubspaceRotationAdjust: set factor to 1.38
ElecMinimize: Iter:   1  G: -375.735122010446730  |grad|_K:  1.287e-05  alpha:  2.560e-02  linmin:  7.259e-04  t[s]:  17644.43
	Linear fluid (dielectric constant: 78.4, screening length: 8.12261 Bohr) occupying 0.707378 of unit cell:	Completed after 13 iterations at t[s]:  17710.74
ElecMinimize: 	Predicted alpha/alphaT>3.000000, increasing alphaT to 7.680090e-02.
	Linear fluid (dielectric constant: 78.4, screening length: 8.12261 Bohr) occupying 0.707842 of unit cell:	Completed after 15 iterations at t[s]:  17770.07
	Linear fluid (dielectric constant: 78.4, screening length: 8.12261 Bohr) occupying 0.708070 of unit cell:	Completed after 13 iterations at t[s]:  17827.81
	FillingsUpdate:  mu: -0.127200000  nElectrons: 233.247758  magneticMoment: [ Abs: 0.82969  Tot: -0.75997 ]
	SubspaceRotationAdjust: set factor to 0.651
ElecMinimize: Iter:   2  G: -375.738451071828479  |grad|_K:  7.576e-06  alpha:  9.896e-02  linmin: -4.480e-06  t[s]:  17893.83
	Linear fluid (dielectric constant: 78.4, screening length: 8.12261 Bohr) occupying 0.709557 of unit cell:	Completed after 17 iterations at t[s]:  17963.15
	Linear fluid (dielectric constant: 78.4, screening length: 8.12261 Bohr) occupying 0.708837 of unit cell:	Completed after 16 iterations at t[s]:  18023.44
	FillingsUpdate:  mu: -0.127200000  nElectrons: 233.359365  magneticMoment: [ Abs: 0.87574  Tot: -0.80572 ]
	SubspaceRotationAdjust: set factor to 0.342
ElecMinimize: Iter:   3  G: -375.739324897326924  |grad|_K:  3.955e-06  alpha:  6.045e-02  linmin: -1.415e-04  t[s]:  18090.18
	Linear fluid (dielectric constant: 78.4, screening length: 8.12261 Bohr) occupying 0.709043 of unit cell:	Completed after 10 iterations at t[s]:  18154.02
ElecMinimize: 	Predicted alpha/alphaT>3.000000, increasing alphaT to 1.813515e-01.
	Linear fluid (dielectric constant: 78.4, screening length: 8.12261 Bohr) occupying 0.709498 of unit cell:	Completed after 11 iterations at t[s]:  18210.14
	Linear fluid (dielectric constant: 78.4, screening length: 8.12261 Bohr) occupying 0.710638 of unit cell:	Completed after 13 iterations at t[s]:  18267.97
	FillingsUpdate:  mu: -0.127200000  nElectrons: 233.547119  magneticMoment: [ Abs: 0.91010  Tot: -0.82183 ]
	SubspaceRotationAdjust: set factor to 0.237
	SubspaceRotationAdjust: resetting CG because factor has changed by 0.0942689
	Linear fluid (dielectric constant: 78.4, screening length: 8.12261 Bohr) occupying 0.710638 of unit cell:	Completed after 0 iterations at t[s]:  18363.19
ElecMinimize: 	State modified externally: resetting search direction.
ElecMinimize: Iter:   4  G: -375.740878951534910  |grad|_K:  4.051e-06  alpha:  4.366e-01
	Linear fluid (dielectric constant: 78.4, screening length: 8.12261 Bohr) occupying 0.709588 of unit cell:	Completed after 17 iterations at t[s]:  18498.80
	Linear fluid (dielectric constant: 78.4, screening length: 8.12261 Bohr) occupying 0.710025 of unit cell:	Completed after 16 iterations at t[s]:  18559.22
	FillingsUpdate:  mu: -0.127200000  nElectrons: 233.465703  magneticMoment: [ Abs: 0.90592  Tot: -0.82405 ]
	SubspaceRotationAdjust: set factor to 0.18
ElecMinimize: Iter:   5  G: -375.741766340900597  |grad|_K:  2.084e-06  alpha:  2.403e-01  linmin: -2.259e-04  t[s]:  18625.16
	Linear fluid (dielectric constant: 78.4, screening length: 8.12261 Bohr) occupying 0.709950 of unit cell:	Completed after 11 iterations at t[s]:  18689.23
	Linear fluid (dielectric constant: 78.4, screening length: 8.12261 Bohr) occupying 0.709863 of unit cell:	Completed after 11 iterations at t[s]:  18745.33
	FillingsUpdate:  mu: -0.127200000  nElectrons: 233.412345  magneticMoment: [ Abs: 0.94313  Tot: -0.85938 ]
	SubspaceRotationAdjust: set factor to 0.205
ElecMinimize: Iter:   6  G: -375.742458492914011  |grad|_K:  1.376e-06  alpha:  7.054e-01  linmin: -8.757e-04  t[s]:  18810.03
	Linear fluid (dielectric constant: 78.4, screening length: 8.12261 Bohr) occupying 0.710045 of unit cell:	Completed after 9 iterations at t[s]:  18872.54
	Linear fluid (dielectric constant: 78.4, screening length: 8.12261 Bohr) occupying 0.710044 of unit cell:	Completed after 0 iterations at t[s]:  18919.02
	FillingsUpdate:  mu: -0.127200000  nElectrons: 233.409332  magneticMoment: [ Abs: 0.96875  Tot: -0.87946 ]
	SubspaceRotationAdjust: set factor to 0.232
ElecMinimize: Iter:   7  G: -375.742763032307153  |grad|_K:  8.967e-07  alpha:  7.021e-01  linmin:  5.766e-05  t[s]:  18985.47
	Linear fluid (dielectric constant: 78.4, screening length: 8.12261 Bohr) occupying 0.710283 of unit cell:	Completed after 10 iterations at t[s]:  19049.23
	Linear fluid (dielectric constant: 78.4, screening length: 8.12261 Bohr) occupying 0.710261 of unit cell:	Completed after 3 iterations at t[s]:  19098.90
	FillingsUpdate:  mu: -0.127200000  nElectrons: 233.420310  magneticMoment: [ Abs: 0.98803  Tot: -0.89500 ]
	SubspaceRotationAdjust: set factor to 0.234
ElecMinimize: Iter:   8  G: -375.742874408562784  |grad|_K:  7.328e-07  alpha:  6.382e-01  linmin: -1.455e-04  t[s]:  19164.88
	Linear fluid (dielectric constant: 78.4, screening length: 8.12261 Bohr) occupying 0.710323 of unit cell:	Completed after 8 iterations at t[s]:  19226.87
	Linear fluid (dielectric constant: 78.4, screening length: 8.12261 Bohr) occupying 0.710299 of unit cell:	Completed after 7 iterations at t[s]:  19279.99
	FillingsUpdate:  mu: -0.127200000  nElectrons: 233.417758  magneticMoment: [ Abs: 0.99228  Tot: -0.89722 ]
	SubspaceRotationAdjust: set factor to 0.173
ElecMinimize: Iter:   9  G: -375.742920625030536  |grad|_K:  4.605e-07  alpha:  3.963e-01  linmin:  3.003e-05  t[s]:  19346.60
	Linear fluid (dielectric constant: 78.4, screening length: 8.12261 Bohr) occupying 0.710376 of unit cell:	Completed after 8 iterations at t[s]:  19408.58
	Linear fluid (dielectric constant: 78.4, screening length: 8.12261 Bohr) occupying 0.710450 of unit cell:	Completed after 7 iterations at t[s]:  19461.57
	FillingsUpdate:  mu: -0.127200000  nElectrons: 233.429722  magneticMoment: [ Abs: 1.00884  Tot: -0.91086 ]
	SubspaceRotationAdjust: set factor to 0.168
ElecMinimize: Iter:  10  G: -375.742957649937637  |grad|_K:  3.747e-07  alpha:  7.882e-01  linmin: -3.529e-04  t[s]:  19527.86
	Linear fluid (dielectric constant: 78.4, screening length: 8.12261 Bohr) occupying 0.710507 of unit cell:	Completed after 3 iterations at t[s]:  19585.92
	Linear fluid (dielectric constant: 78.4, screening length: 8.12261 Bohr) occupying 0.710489 of unit cell:	Completed after 3 iterations at t[s]:  19635.72
	FillingsUpdate:  mu: -0.127200000  nElectrons: 233.433075  magneticMoment: [ Abs: 1.01672  Tot: -0.91666 ]
	SubspaceRotationAdjust: set factor to 0.193
ElecMinimize: Iter:  11  G: -375.742974420060477  |grad|_K:  2.731e-07  alpha:  5.307e-01  linmin:  2.220e-06  t[s]:  19701.61
	Linear fluid (dielectric constant: 78.4, screening length: 8.12261 Bohr) occupying 0.710497 of unit cell:	Completed after 3 iterations at t[s]:  19759.56
	Linear fluid (dielectric constant: 78.4, screening length: 8.12261 Bohr) occupying 0.710501 of unit cell:	Completed after 2 iterations at t[s]:  19808.39
	FillingsUpdate:  mu: -0.127200000  nElectrons: 233.435767  magneticMoment: [ Abs: 1.02569  Tot: -0.92286 ]
	SubspaceRotationAdjust: set factor to 0.222
ElecMinimize: Iter:  12  G: -375.742987265311115  |grad|_K:  1.872e-07  alpha:  7.905e-01  linmin: -2.919e-06  t[s]:  19874.14
	Linear fluid (dielectric constant: 78.4, screening length: 8.12261 Bohr) occupying 0.710504 of unit cell:	Completed after 3 iterations at t[s]:  19932.25
	Linear fluid (dielectric constant: 78.4, screening length: 8.12261 Bohr) occupying 0.710504 of unit cell:	Completed after 0 iterations at t[s]:  19978.75
	FillingsUpdate:  mu: -0.127200000  nElectrons: 233.437842  magneticMoment: [ Abs: 1.03266  Tot: -0.92762 ]
	SubspaceRotationAdjust: set factor to 0.249
ElecMinimize: Iter:  13  G: -375.742993328007913  |grad|_K:  1.415e-07  alpha:  7.935e-01  linmin: -1.136e-05  t[s]:  20045.07
	Linear fluid (dielectric constant: 78.4, screening length: 8.12261 Bohr) occupying 0.710496 of unit cell:	Completed after 2 iterations at t[s]:  20102.32
	Linear fluid (dielectric constant: 78.4, screening length: 8.12261 Bohr) occupying 0.710498 of unit cell:	Completed after 0 iterations at t[s]:  20148.66
	FillingsUpdate:  mu: -0.127200000  nElectrons: 233.438102  magneticMoment: [ Abs: 1.03671  Tot: -0.93014 ]
	SubspaceRotationAdjust: set factor to 0.263
ElecMinimize: Iter:  14  G: -375.742996133776785  |grad|_K:  1.201e-07  alpha:  6.361e-01  linmin:  1.821e-04  t[s]:  20214.75
	Linear fluid (dielectric constant: 78.4, screening length: 8.12261 Bohr) occupying 0.710504 of unit cell:	Completed after 2 iterations at t[s]:  20271.95
	Linear fluid (dielectric constant: 78.4, screening length: 8.12261 Bohr) occupying 0.710503 of unit cell:	Completed after 1 iterations at t[s]:  20320.03
	FillingsUpdate:  mu: -0.127200000  nElectrons: 233.439045  magneticMoment: [ Abs: 1.04045  Tot: -0.93262 ]
	SubspaceRotationAdjust: set factor to 0.233
ElecMinimize: Iter:  15  G: -375.742997588097694  |grad|_K:  9.723e-08  alpha:  4.943e-01  linmin: -1.164e-05  t[s]:  20386.89
	Linear fluid (dielectric constant: 78.4, screening length: 8.12261 Bohr) occupying 0.710497 of unit cell:	Completed after 3 iterations at t[s]:  20444.92
	Linear fluid (dielectric constant: 78.4, screening length: 8.12261 Bohr) occupying 0.710498 of unit cell:	Completed after 0 iterations at t[s]:  20491.49
	FillingsUpdate:  mu: -0.127200000  nElectrons: 233.438688  magneticMoment: [ Abs: 1.04220  Tot: -0.93349 ]
	SubspaceRotationAdjust: set factor to 0.174
ElecMinimize: Iter:  16  G: -375.742998428843350  |grad|_K:  6.968e-08  alpha:  4.066e-01  linmin:  2.076e-04  t[s]:  20557.64
	Linear fluid (dielectric constant: 78.4, screening length: 8.12261 Bohr) occupying 0.710503 of unit cell:	Completed after 1 iterations at t[s]:  20614.02
	Linear fluid (dielectric constant: 78.4, screening length: 8.12261 Bohr) occupying 0.710504 of unit cell:	Completed after 0 iterations at t[s]:  20660.38
	FillingsUpdate:  mu: -0.127200000  nElectrons: 233.439276  magneticMoment: [ Abs: 1.04440  Tot: -0.93478 ]
	SubspaceRotationAdjust: set factor to 0.21
ElecMinimize: Iter:  17  G: -375.742999001892656  |grad|_K:  3.759e-08  alpha:  5.332e-01  linmin: -8.977e-04  t[s]:  20726.84
	Linear fluid (dielectric constant: 78.4, screening length: 8.12261 Bohr) occupying 0.710507 of unit cell:	Completed after 1 iterations at t[s]:  20783.33
	Linear fluid (dielectric constant: 78.4, screening length: 8.12261 Bohr) occupying 0.710508 of unit cell:	Completed after 0 iterations at t[s]:  20829.81
	FillingsUpdate:  mu: -0.127200000  nElectrons: 233.439514  magneticMoment: [ Abs: 1.04551  Tot: -0.93533 ]
	SubspaceRotationAdjust: set factor to 0.242
ElecMinimize: Iter:  18  G: -375.742999263343961  |grad|_K:  2.908e-08  alpha:  6.706e-01  linmin: -8.493e-04  t[s]:  20898.74
	Linear fluid (dielectric constant: 78.4, screening length: 8.12261 Bohr) occupying 0.710510 of unit cell:	Completed after 1 iterations at t[s]:  20954.88
	Linear fluid (dielectric constant: 78.4, screening length: 8.12261 Bohr) occupying 0.710510 of unit cell:	Completed after 0 iterations at t[s]:  21001.40
	FillingsUpdate:  mu: -0.127200000  nElectrons: 233.439452  magneticMoment: [ Abs: 1.04635  Tot: -0.93558 ]
	SubspaceRotationAdjust: set factor to 0.302
ElecMinimize: Iter:  19  G: -375.742999441298082  |grad|_K:  2.401e-08  alpha:  7.788e-01  linmin: -2.445e-04  t[s]:  21067.53
	Linear fluid (dielectric constant: 78.4, screening length: 8.12261 Bohr) occupying 0.710509 of unit cell:	Completed after 2 iterations at t[s]:  21124.47
	Linear fluid (dielectric constant: 78.4, screening length: 8.12261 Bohr) occupying 0.710509 of unit cell:	Completed after 0 iterations at t[s]:  21170.65
	FillingsUpdate:  mu: -0.127200000  nElectrons: 233.439315  magneticMoment: [ Abs: 1.04667  Tot: -0.93561 ]
	SubspaceRotationAdjust: set factor to 0.238
ElecMinimize: Iter:  20  G: -375.742999489111753  |grad|_K:  4.041e-08  alpha:  4.006e-01  linmin:  2.929e-04  t[s]:  21236.10
	Linear fluid (dielectric constant: 78.4, screening length: 8.12261 Bohr) occupying 0.710513 of unit cell:	Completed after 2 iterations at t[s]:  21293.34
	Linear fluid (dielectric constant: 78.4, screening length: 8.12261 Bohr) occupying 0.710511 of unit cell:	Completed after 1 iterations at t[s]:  21341.30
	FillingsUpdate:  mu: -0.127200000  nElectrons: 233.439353  magneticMoment: [ Abs: 1.04711  Tot: -0.93576 ]
	SubspaceRotationAdjust: set factor to 0.368
ElecMinimize: Iter:  21  G: -375.742999519709599  |grad|_K:  2.172e-08  alpha:  1.223e-01  linmin:  2.469e-04  t[s]:  21409.51
ElecMinimize: Converged (|Delta G|<1.000000e-07 for 2 iters).
Setting wave functions to eigenvectors of Hamiltonian
Converging empty states (this may take a while): |deigs|: 4.324e-04
Single-point solvation energy estimate, DeltaG = -0.016943007078453

Computing DFT-D3 correction:
# coordination-number C 3.301 3.323 3.336 3.332 3.313 3.291 3.322 3.534 3.329 3.313 3.303 3.341 3.301 3.301 3.323 3.747 3.270 3.303 3.320 3.334 3.326 3.306 3.302 3.331 3.336 3.320 3.301 3.270 3.530 3.323 3.303 3.306 3.317 3.301 3.313 3.327 3.743 3.334 3.292 3.314 3.333 3.333 3.322 3.303 2.989
# coordination-number N 3.171 3.185 3.176 3.186
# coordination-number Ti 6.851
# coordination-number O 2.018 1.171 2.008
# coordination-number H 1.020 0.992 0.993
# diagonal-C6 C 24.27 24.05 23.90 23.95 24.16 24.36 24.06 21.15 23.98 24.15 24.25 23.85 24.27 24.27 24.05 19.00 24.55 24.26 24.08 23.93 24.02 24.23 24.26 23.97 23.91 24.08 24.27 24.55 21.20 24.06 24.26 24.22 24.11 24.27 24.15 24.00 19.02 23.93 24.36 24.14 23.94 23.94 24.06 24.25 25.69
# diagonal-C6 N 15.60 15.60 15.60 15.60
# diagonal-C6 Ti 321.59
# diagonal-C6 O 10.40 12.64 10.41
# diagonal-C6 H 3.08 3.09 3.09
EvdW_6 =   -0.045085
EvdW_8 =   -0.033925
Completed 1 of 22 configurations.

Computing DFT-D3 correction:
# coordination-number C 3.301 3.323 3.336 3.332 3.313 3.291 3.322 3.534 3.329 3.313 3.303 3.341 3.301 3.301 3.323 3.747 3.270 3.303 3.320 3.334 3.326 3.306 3.302 3.331 3.336 3.320 3.301 3.270 3.530 3.323 3.303 3.306 3.317 3.301 3.313 3.327 3.743 3.334 3.292 3.314 3.333 3.333 3.322 3.303 2.989
# coordination-number N 3.171 3.185 3.176 3.186
# coordination-number Ti 6.851
# coordination-number O 2.018 1.171 2.008
# coordination-number H 1.020 0.992 0.993
# diagonal-C6 C 24.27 24.05 23.90 23.95 24.16 24.36 24.06 21.15 23.98 24.15 24.25 23.85 24.27 24.27 24.05 19.00 24.55 24.26 24.08 23.93 24.02 24.23 24.26 23.97 23.91 24.08 24.27 24.55 21.20 24.06 24.26 24.22 24.11 24.27 24.15 24.00 19.02 23.93 24.36 24.14 23.94 23.94 24.06 24.25 25.69
# diagonal-C6 N 15.60 15.60 15.60 15.60
# diagonal-C6 Ti 321.59
# diagonal-C6 O 10.40 12.64 10.41
# diagonal-C6 H 3.08 3.09 3.09
EvdW_6 =   -0.045085
EvdW_8 =   -0.033925
Shifting auxilliary hamiltonian by 0.000007 to set nElectrons=233.439353

-------- Electronic minimization -----------
	Linear fluid (dielectric constant: 78.4, screening length: 8.12261 Bohr) occupying 0.710506 of unit cell:	Completed after 6 iterations at t[s]:  22356.22
	FillingsUpdate:  mu: -0.127200000  nElectrons: 233.439353  magneticMoment: [ Abs: 1.04810  Tot: -0.93629 ]
ElecMinimize: Iter:   0  G: -375.742918224066557  |grad|_K:  3.328e-07  alpha:  1.000e+00
	Linear fluid (dielectric constant: 78.4, screening length: 8.12261 Bohr) occupying 0.710475 of unit cell:	Completed after 7 iterations at t[s]:  22490.15
	Linear fluid (dielectric constant: 78.4, screening length: 8.12261 Bohr) occupying 0.710486 of unit cell:	Completed after 3 iterations at t[s]:  22539.08
	FillingsUpdate:  mu: -0.127200000  nElectrons: 233.437319  magneticMoment: [ Abs: 1.04628  Tot: -0.93454 ]
	SubspaceRotationAdjust: set factor to 0.272
ElecMinimize: Iter:   1  G: -375.742933501359232  |grad|_K:  2.723e-07  alpha:  6.305e-01  linmin:  6.515e-05  t[s]:  22603.32
	Linear fluid (dielectric constant: 78.4, screening length: 8.12261 Bohr) occupying 0.710538 of unit cell:	Completed after 8 iterations at t[s]:  22664.86
	Linear fluid (dielectric constant: 78.4, screening length: 8.12261 Bohr) occupying 0.710507 of unit cell:	Completed after 7 iterations at t[s]:  22716.99
	FillingsUpdate:  mu: -0.127200000  nElectrons: 233.439574  magneticMoment: [ Abs: 1.04789  Tot: -0.93601 ]
	SubspaceRotationAdjust: set factor to 0.202
ElecMinimize: Iter:   2  G: -375.742937382960463  |grad|_K:  1.266e-07  alpha:  2.464e-01  linmin:  1.696e-04  t[s]:  22784.14
	Linear fluid (dielectric constant: 78.4, screening length: 8.12261 Bohr) occupying 0.710506 of unit cell:	Completed after 2 iterations at t[s]:  22840.94
ElecMinimize: 	Predicted alpha/alphaT>3.000000, increasing alphaT to 7.393358e-01.
	Linear fluid (dielectric constant: 78.4, screening length: 8.12261 Bohr) occupying 0.710505 of unit cell:	Completed after 2 iterations at t[s]:  22889.39
	Linear fluid (dielectric constant: 78.4, screening length: 8.12261 Bohr) occupying 0.710505 of unit cell:	Completed after 0 iterations at t[s]:  22935.28
	FillingsUpdate:  mu: -0.127200000  nElectrons: 233.439777  magneticMoment: [ Abs: 1.04801  Tot: -0.93605 ]
	SubspaceRotationAdjust: set factor to 0.29
ElecMinimize: Iter:   3  G: -375.742940254122857  |grad|_K:  7.738e-08  alpha:  8.298e-01  linmin: -2.089e-04  t[s]:  22999.48
	Linear fluid (dielectric constant: 78.4, screening length: 8.12261 Bohr) occupying 0.710499 of unit cell:	Completed after 2 iterations at t[s]:  23056.24
[...]
disp Ti   0.000000000000000   0.000000000000000   0.000000000000000
disp O   0.000050216910241  -0.000095431594486   0.000157250643204
disp O   0.000098133174015  -0.000445068551918   0.000219194518664
disp O  -0.000690404405073   0.000854051612450   0.000944700112541
disp H   0.000069722977815   0.000367750066960   0.000428418942751
disp H   0.014053840486800  -0.003378416869815  -0.007037118820496
disp H  -0.003083053580300  -0.012646896333325  -0.008633821077061

Real mode 14:
Frequency: 0.007206 Eh [ 1582 cm^-1 ]
Degeneracy: 1 of 1
IR intensity: 16.3128 e^2/amu [ 15903.0 km/mol ]
Displacements:
disp C   0.000000000000000   0.000000000000000   0.000000000000000
disp C   0.000000000000000   0.000000000000000   0.000000000000000
disp C   0.000000000000000   0.000000000000000   0.000000000000000
disp C   0.000000000000000   0.000000000000000   0.000000000000000
disp C   0.000000000000000   0.000000000000000   0.000000000000000
disp C   0.000000000000000   0.000000000000000   0.000000000000000
disp C   0.000000000000000   0.000000000000000   0.000000000000000
disp C   0.000000000000000   0.000000000000000   0.000000000000000
disp C   0.000000000000000   0.000000000000000   0.000000000000000
disp C   0.000000000000000   0.000000000000000   0.000000000000000
disp C   0.000000000000000   0.000000000000000   0.000000000000000
disp C   0.000000000000000   0.000000000000000   0.000000000000000
disp C   0.000000000000000   0.000000000000000   0.000000000000000
disp C   0.000000000000000   0.000000000000000   0.000000000000000
disp C   0.000000000000000   0.000000000000000   0.000000000000000
disp C   0.000000000000000   0.000000000000000   0.000000000000000
disp C   0.000000000000000   0.000000000000000   0.000000000000000
disp C   0.000000000000000   0.000000000000000   0.000000000000000
disp C   0.000000000000000   0.000000000000000   0.000000000000000
disp C   0.000000000000000   0.000000000000000   0.000000000000000
disp C   0.000000000000000   0.000000000000000   0.000000000000000
disp C   0.000000000000000   0.000000000000000   0.000000000000000
disp C   0.000000000000000   0.000000000000000   0.000000000000000
disp C   0.000000000000000   0.000000000000000   0.000000000000000
disp C   0.000000000000000   0.000000000000000   0.000000000000000
disp C   0.000000000000000   0.000000000000000   0.000000000000000
disp C   0.000000000000000   0.000000000000000   0.000000000000000
disp C   0.000000000000000   0.000000000000000   0.000000000000000
disp C   0.000000000000000   0.000000000000000   0.000000000000000
disp C   0.000000000000000   0.000000000000000   0.000000000000000
disp C   0.000000000000000   0.000000000000000   0.000000000000000
disp C   0.000000000000000   0.000000000000000   0.000000000000000
disp C   0.000000000000000   0.000000000000000   0.000000000000000
disp C   0.000000000000000   0.000000000000000   0.000000000000000
disp C   0.000000000000000   0.000000000000000   0.000000000000000
disp C   0.000000000000000   0.000000000000000   0.000000000000000
disp C   0.000000000000000   0.000000000000000   0.000000000000000
disp C   0.000000000000000   0.000000000000000   0.000000000000000
disp C   0.000000000000000   0.000000000000000   0.000000000000000
disp C   0.000000000000000   0.000000000000000   0.000000000000000
disp C   0.000000000000000   0.000000000000000   0.000000000000000
disp C   0.000000000000000   0.000000000000000   0.000000000000000
disp C   0.000000000000000   0.000000000000000   0.000000000000000
disp C   0.000000000000000   0.000000000000000   0.000000000000000
disp C  -0.000967983187762   0.004525352868412  -0.002003178269748
disp N   0.000000000000000   0.000000000000000   0.000000000000000
disp N   0.000000000000000   0.000000000000000   0.000000000000000
disp N   0.000000000000000   0.000000000000000   0.000000000000000
disp N   0.000000000000000   0.000000000000000   0.000000000000000
disp Ti   0.000000000000000   0.000000000000000   0.000000000000000
disp O  -0.000003037785296   0.000011173718804   0.000486384588220
disp O   0.000728380532660  -0.003415351405784   0.001232677275928
disp O   0.000110058709237  -0.000083413777446  -0.000075542463829
disp H   0.000380353068155  -0.001363165626381  -0.003268569036645
disp H  -0.001551859698590   0.000417898869411   0.000681866898542
disp H   0.000342921353775   0.001619450076841   0.000958913603395

Real mode 15:
Frequency: 0.015676 Eh [ 3441 cm^-1 ]
Degeneracy: 1 of 1
IR intensity: 1.2580 e^2/amu [ 1226.4 km/mol ]
Displacements:
disp C   0.000000000000000   0.000000000000000   0.000000000000000
disp C   0.000000000000000   0.000000000000000   0.000000000000000
disp C   0.000000000000000   0.000000000000000   0.000000000000000
disp C   0.000000000000000   0.000000000000000   0.000000000000000
disp C   0.000000000000000   0.000000000000000   0.000000000000000
disp C   0.000000000000000   0.000000000000000   0.000000000000000
disp C   0.000000000000000   0.000000000000000   0.000000000000000
disp C   0.000000000000000   0.000000000000000   0.000000000000000
disp C   0.000000000000000   0.000000000000000   0.000000000000000
disp C   0.000000000000000   0.000000000000000   0.000000000000000
disp C   0.000000000000000   0.000000000000000   0.000000000000000
disp C   0.000000000000000   0.000000000000000   0.000000000000000
disp C   0.000000000000000   0.000000000000000   0.000000000000000
disp C   0.000000000000000   0.000000000000000   0.000000000000000
disp C   0.000000000000000   0.000000000000000   0.000000000000000
disp C   0.000000000000000   0.000000000000000   0.000000000000000
disp C   0.000000000000000   0.000000000000000   0.000000000000000
disp C   0.000000000000000   0.000000000000000   0.000000000000000
disp C   0.000000000000000   0.000000000000000   0.000000000000000
disp C   0.000000000000000   0.000000000000000   0.000000000000000
disp C   0.000000000000000   0.000000000000000   0.000000000000000
disp C   0.000000000000000   0.000000000000000   0.000000000000000
disp C   0.000000000000000   0.000000000000000   0.000000000000000
disp C   0.000000000000000   0.000000000000000   0.000000000000000
disp C   0.000000000000000   0.000000000000000   0.000000000000000
disp C   0.000000000000000   0.000000000000000   0.000000000000000
disp C   0.000000000000000   0.000000000000000   0.000000000000000
disp C   0.000000000000000   0.000000000000000   0.000000000000000
disp C   0.000000000000000   0.000000000000000   0.000000000000000
disp C   0.000000000000000   0.000000000000000   0.000000000000000
disp C   0.000000000000000   0.000000000000000   0.000000000000000
disp C   0.000000000000000   0.000000000000000   0.000000000000000
disp C   0.000000000000000   0.000000000000000   0.000000000000000
disp C   0.000000000000000   0.000000000000000   0.000000000000000
disp C   0.000000000000000   0.000000000000000   0.000000000000000
disp C   0.000000000000000   0.000000000000000   0.000000000000000
disp C   0.000000000000000   0.000000000000000   0.000000000000000
disp C   0.000000000000000   0.000000000000000   0.000000000000000
disp C   0.000000000000000   0.000000000000000   0.000000000000000
disp C   0.000000000000000   0.000000000000000   0.000000000000000
disp C   0.000000000000000   0.000000000000000   0.000000000000000
disp C   0.000000000000000   0.000000000000000   0.000000000000000
disp C   0.000000000000000   0.000000000000000   0.000000000000000
disp C   0.000000000000000   0.000000000000000   0.000000000000000
disp C   0.000016660639246  -0.000099076166408  -0.000042474370792
disp N   0.000000000000000   0.000000000000000   0.000000000000000
disp N   0.000000000000000   0.000000000000000   0.000000000000000
disp N   0.000000000000000   0.000000000000000   0.000000000000000
disp N   0.000000000000000   0.000000000000000   0.000000000000000
disp Ti   0.000000000000000   0.000000000000000   0.000000000000000
disp O   0.000467416764433  -0.001291077801959   0.000626300212634
disp O  -0.000011427051706   0.000058779783379   0.000006239526483
disp O  -0.000003811943780  -0.000049112512186  -0.000078501793921
disp H  -0.007060666690827   0.019011682795917  -0.009538351352462
disp H   0.000636440306506   0.001559911120930   0.000870653665052
disp H  -0.001311736367706   0.000134702969359   0.000396290021450

Real mode 16:
Frequency: 0.017080 Eh [ 3749 cm^-1 ]
Degeneracy: 1 of 1
IR intensity: 0.1909 e^2/amu [ 186.1 km/mol ]
Displacements:
disp C   0.000000000000000   0.000000000000000   0.000000000000000
disp C   0.000000000000000   0.000000000000000   0.000000000000000
disp C   0.000000000000000   0.000000000000000   0.000000000000000
disp C   0.000000000000000   0.000000000000000   0.000000000000000
disp C   0.000000000000000   0.000000000000000   0.000000000000000
disp C   0.000000000000000   0.000000000000000   0.000000000000000
disp C   0.000000000000000   0.000000000000000   0.000000000000000
disp C   0.000000000000000   0.000000000000000   0.000000000000000
disp C   0.000000000000000   0.000000000000000   0.000000000000000
disp C   0.000000000000000   0.000000000000000   0.000000000000000
disp C   0.000000000000000   0.000000000000000   0.000000000000000
disp C   0.000000000000000   0.000000000000000   0.000000000000000
disp C   0.000000000000000   0.000000000000000   0.000000000000000
disp C   0.000000000000000   0.000000000000000   0.000000000000000
disp C   0.000000000000000   0.000000000000000   0.000000000000000
disp C   0.000000000000000   0.000000000000000   0.000000000000000
disp C   0.000000000000000   0.000000000000000   0.000000000000000
disp C   0.000000000000000   0.000000000000000   0.000000000000000
disp C   0.000000000000000   0.000000000000000   0.000000000000000
disp C   0.000000000000000   0.000000000000000   0.000000000000000
disp C   0.000000000000000   0.000000000000000   0.000000000000000
disp C   0.000000000000000   0.000000000000000   0.000000000000000
disp C   0.000000000000000   0.000000000000000   0.000000000000000
disp C   0.000000000000000   0.000000000000000   0.000000000000000
disp C   0.000000000000000   0.000000000000000   0.000000000000000
disp C   0.000000000000000   0.000000000000000   0.000000000000000
disp C   0.000000000000000   0.000000000000000   0.000000000000000
disp C   0.000000000000000   0.000000000000000   0.000000000000000
disp C   0.000000000000000   0.000000000000000   0.000000000000000
disp C   0.000000000000000   0.000000000000000   0.000000000000000
disp C   0.000000000000000   0.000000000000000   0.000000000000000
disp C   0.000000000000000   0.000000000000000   0.000000000000000
disp C   0.000000000000000   0.000000000000000   0.000000000000000
disp C   0.000000000000000   0.000000000000000   0.000000000000000
disp C   0.000000000000000   0.000000000000000   0.000000000000000
disp C   0.000000000000000   0.000000000000000   0.000000000000000
disp C   0.000000000000000   0.000000000000000   0.000000000000000
disp C   0.000000000000000   0.000000000000000   0.000000000000000
disp C   0.000000000000000   0.000000000000000   0.000000000000000
disp C   0.000000000000000   0.000000000000000   0.000000000000000
disp C   0.000000000000000   0.000000000000000   0.000000000000000
disp C   0.000000000000000   0.000000000000000   0.000000000000000
disp C   0.000000000000000   0.000000000000000   0.000000000000000
disp C   0.000000000000000   0.000000000000000   0.000000000000000
disp C   0.000000167681095  -0.000013501966818   0.000016956445703
disp N   0.000000000000000   0.000000000000000   0.000000000000000
disp N   0.000000000000000   0.000000000000000   0.000000000000000
disp N   0.000000000000000   0.000000000000000   0.000000000000000
disp N   0.000000000000000   0.000000000000000   0.000000000000000
disp Ti   0.000000000000000   0.000000000000000   0.000000000000000
disp O   0.000037327096029  -0.000100128383133   0.000055453828885
disp O   0.000001324053949   0.000006063148292   0.000005369141553
disp O   0.000286671424498   0.001029720564619   0.000733126810014
disp H  -0.000689566251331   0.001850134799062  -0.000820314908640
disp H  -0.009803575320892  -0.016822310057569  -0.010001339697619
disp H   0.005605217354507   0.000517954118583  -0.001403458893909

Real mode 17:
Frequency: 0.017572 Eh [ 3857 cm^-1 ]
Degeneracy: 1 of 1
IR intensity: 0.2991 e^2/amu [ 291.6 km/mol ]
Displacements:
disp C   0.000000000000000   0.000000000000000   0.000000000000000
disp C   0.000000000000000   0.000000000000000   0.000000000000000
disp C   0.000000000000000   0.000000000000000   0.000000000000000
disp C   0.000000000000000   0.000000000000000   0.000000000000000
disp C   0.000000000000000   0.000000000000000   0.000000000000000
disp C   0.000000000000000   0.000000000000000   0.000000000000000
disp C   0.000000000000000   0.000000000000000   0.000000000000000
disp C   0.000000000000000   0.000000000000000   0.000000000000000
disp C   0.000000000000000   0.000000000000000   0.000000000000000
disp C   0.000000000000000   0.000000000000000   0.000000000000000
disp C   0.000000000000000   0.000000000000000   0.000000000000000
disp C   0.000000000000000   0.000000000000000   0.000000000000000
disp C   0.000000000000000   0.000000000000000   0.000000000000000
disp C   0.000000000000000   0.000000000000000   0.000000000000000
disp C   0.000000000000000   0.000000000000000   0.000000000000000
disp C   0.000000000000000   0.000000000000000   0.000000000000000
disp C   0.000000000000000   0.000000000000000   0.000000000000000
disp C   0.000000000000000   0.000000000000000   0.000000000000000
disp C   0.000000000000000   0.000000000000000   0.000000000000000
disp C   0.000000000000000   0.000000000000000   0.000000000000000
disp C   0.000000000000000   0.000000000000000   0.000000000000000
disp C   0.000000000000000   0.000000000000000   0.000000000000000
disp C   0.000000000000000   0.000000000000000   0.000000000000000
disp C   0.000000000000000   0.000000000000000   0.000000000000000
disp C   0.000000000000000   0.000000000000000   0.000000000000000
disp C   0.000000000000000   0.000000000000000   0.000000000000000
disp C   0.000000000000000   0.000000000000000   0.000000000000000
disp C   0.000000000000000   0.000000000000000   0.000000000000000
disp C   0.000000000000000   0.000000000000000   0.000000000000000
disp C   0.000000000000000   0.000000000000000   0.000000000000000
disp C   0.000000000000000   0.000000000000000   0.000000000000000
disp C   0.000000000000000   0.000000000000000   0.000000000000000
disp C   0.000000000000000   0.000000000000000   0.000000000000000
disp C   0.000000000000000   0.000000000000000   0.000000000000000
disp C   0.000000000000000   0.000000000000000   0.000000000000000
disp C   0.000000000000000   0.000000000000000   0.000000000000000
disp C   0.000000000000000   0.000000000000000   0.000000000000000
disp C   0.000000000000000   0.000000000000000   0.000000000000000
disp C   0.000000000000000   0.000000000000000   0.000000000000000
disp C   0.000000000000000   0.000000000000000   0.000000000000000
disp C   0.000000000000000   0.000000000000000   0.000000000000000
disp C   0.000000000000000   0.000000000000000   0.000000000000000
disp C   0.000000000000000   0.000000000000000   0.000000000000000
disp C   0.000000000000000   0.000000000000000   0.000000000000000
disp C   0.000003928971188   0.000010766259089  -0.000015628631666
disp N   0.000000000000000   0.000000000000000   0.000000000000000
disp N   0.000000000000000   0.000000000000000   0.000000000000000
disp N   0.000000000000000   0.000000000000000   0.000000000000000
disp N   0.000000000000000   0.000000000000000   0.000000000000000
disp Ti   0.000000000000000   0.000000000000000   0.000000000000000
disp O   0.000020272364993  -0.000049217384249   0.000008984884278
disp O   0.000001634074875   0.000000920053241  -0.000006928010335
disp O  -0.001386329750105  -0.000328442481597   0.000254904303675
disp H  -0.000277897764721   0.000721997717416  -0.000272143012472
disp H   0.002001100404759   0.004270919083329   0.002804608112354
disp H   0.020716195841395   0.000510748889181  -0.007123965750651

Vibrational free energy components at T = 298 K:
	ZPE:          0.044725
	Evib:         0.049120
	TSvib:        0.008168
	Avib:         0.040952


Dumping 'jdft.n_up' ... done
Dumping 'jdft.n_dn' ... done
Dumping 'jdft.tau_up' ... done
Dumping 'jdft.tau_dn' ... done
Dumping 'jdft.eigenvals' ... done
Dumping 'jdft.eigStats' ... 
	eMin: -2.258568 at state 9 ( [ +0.000000 +0.000000 +0.000000 ] spin -1 )
	HOMO: -0.128740 at state 13 ( [ +0.333333 +0.333333 +0.000000 ] spin -1 )
	mu  : -0.127200
	LUMO: -0.124244 at state 1 ( [ +0.000000 +0.333333 +0.000000 ] spin 1 )
	eMax: +0.022391 at state 0 ( [ +0.000000 +0.000000 +0.000000 ] spin 1 )
	HOMO-LUMO gap: +0.004496
	Optical gap  : +0.009121 at state 11 ( [ +0.000000 -0.333333 +0.000000 ] spin -1 )
Dumping 'jdft.kPts' ... done
Dumping 'jdft.dosUp' ... done.
Dumping 'jdft.dosDn' ... done.
End date and time: Mon Nov 21 13:49:29 2022  (Duration: 0-16:24:01.85)
Done!

PROFILER:             augmentDensityGrid     0.885634 +/-     1.105188 s, 3215 calls,   2847.313049 s total
PROFILER:         augmentDensityGridGrad     0.584700 +/-     0.703113 s, 1780 calls,   1040.765313 s total
PROFILER:        augmentDensitySpherical     0.000565 +/-     0.000796 s, 3215 calls,      1.817838 s total
PROFILER:    augmentDensitySphericalGrad     0.000715 +/-     0.001441 s, 2210 calls,      1.580984 s total
PROFILER:                 augmentOverlap     1.813048 +/-     2.573661 s, 6735 calls,  12210.878057 s total
PROFILER:        ColumnBundle::randomize     0.006332 +/-     0.000000 s,    1 calls,      0.006332 s total
PROFILER:                     diagouterI    19.595261 +/-     2.975123 s,  646 calls,  12658.538285 s total
PROFILER:              EdensityAndVscloc     7.917095 +/-     5.604002 s,  644 calls,   5098.608929 s total
PROFILER:                     EnlAndGrad     0.002128 +/-     0.003210 s, 3500 calls,      7.446522 s total
PROFILER:            ExCorrCommunication     0.087740 +/-     0.096497 s, 4108 calls,    360.436709 s total
PROFILER:               ExCorrFunctional     0.027064 +/-     0.004986 s,  711 calls,     19.242446 s total
PROFILER:                    ExCorrTotal     0.844149 +/-     0.175242 s,  711 calls,    600.189956 s total
PROFILER:                   Idag_DiagV_I    35.447884 +/-    10.883214 s,  420 calls,  14888.111157 s total
PROFILER:                    initWeights     2.409728 +/-     0.000000 s,    1 calls,      2.409728 s total
PROFILER:                    inv(matrix)     0.003075 +/-     0.002863 s,  589 calls,      1.810882 s total
PROFILER:            matrix::diagonalize     0.012164 +/-     0.007661 s, 1039 calls,     12.638759 s total
PROFILER:                    matrix::set     0.000003 +/-     0.000003 s, 64538 calls,      0.205841 s total
PROFILER:            orthoMatrix(matrix)     0.002894 +/-     0.001219 s,  654 calls,      1.892504 s total
PROFILER:     RadialFunctionR::transform     0.018729 +/-     0.162631 s,  151 calls,      2.828077 s total
PROFILER:                    reduceKmesh     0.000000 +/-     0.000000 s,    1 calls,      0.000000 s total
PROFILER:   VanDerWaalsD3::energyAndGrad     0.049011 +/-     0.002636 s,   45 calls,      2.205492 s total
PROFILER:               WavefunctionDrag    36.077760 +/-     0.720636 s,   22 calls,    793.710711 s total
PROFILER:                            Y*M     0.836791 +/-     1.025971 s, 11571 calls,   9682.503745 s total
PROFILER:                          Y1^Y2     0.891800 +/-     1.063199 s, 8614 calls,   7681.968492 s total

MEMUSAGE:                   ColumnBundle     1.365987 GB
MEMUSAGE:        complexScalarFieldTilde     0.074158 GB
MEMUSAGE:                    IndexArrays     0.023178 GB
MEMUSAGE:                         matrix     0.020862 GB
MEMUSAGE:                           misc     0.051230 GB
MEMUSAGE:                    ScalarField     0.395508 GB
MEMUSAGE:               ScalarFieldTilde     0.262436 GB
MEMUSAGE:                          Total     1.683400 GB
