
*************** JDFTx 1.7.0 (git hash 5f12716a) ***************

Start date and time: Tue Aug  2 09:11:50 2022
Executable /home/nisi6161/jdftx_alpine/build/jdftx with command-line: -i in
Running on hosts (process indices):  c3cpu-a2-u30-1 (0-17)
Divided in process groups (process indices):  0 (0)  1 (1)  2 (2)  3 (3)  4 (4)  5 (5)  6 (6)  7 (7)  8 (8)  9 (9)  10 (10)  11 (11)  12 (12)  13 (13)  14 (14)  15 (15)  16 (16)  17 (17)
Resource initialization completed at t[s]:      0.01
Run totals: 18 processes, 64 threads, 0 GPUs


Input parsed successfully to the following command list (including defaults):

basis kpoint-dependent
converge-empty-states yes
coords-type Cartesian
core-overlap-check none
coulomb-interaction Periodic
davidson-band-ratio 1.1
density-of-states Etol 1.000000e-06 Esigma 1.000000e-03 \
		Complete \
	Total \
	OrthoOrbital C 1   s \
	OrthoOrbital C 1   p \
	OrthoOrbital C 1   px \
	OrthoOrbital C 1   py \
	OrthoOrbital C 1   pz \
	OrthoOrbital C 2   s \
	OrthoOrbital C 2   p \
	OrthoOrbital C 2   px \
	OrthoOrbital C 2   py \
	OrthoOrbital C 2   pz \
	OrthoOrbital C 3   s \
	OrthoOrbital C 3   p \
	OrthoOrbital C 3   px \
	OrthoOrbital C 3   py \
	OrthoOrbital C 3   pz \
	OrthoOrbital C 4   s \
	OrthoOrbital C 4   p \
	OrthoOrbital C 4   px \
	OrthoOrbital C 4   py \
	OrthoOrbital C 4   pz \
	OrthoOrbital C 5   s \
	OrthoOrbital C 5   p \
	OrthoOrbital C 5   px \
	OrthoOrbital C 5   py \
	OrthoOrbital C 5   pz \
	OrthoOrbital C 6   s \
	OrthoOrbital C 6   p \
	OrthoOrbital C 6   px \
	OrthoOrbital C 6   py \
	OrthoOrbital C 6   pz \
	OrthoOrbital C 7   s \
	OrthoOrbital C 7   p \
	OrthoOrbital C 7   px \
	OrthoOrbital C 7   py \
	OrthoOrbital C 7   pz \
	OrthoOrbital C 8   s \
	OrthoOrbital C 8   p \
	OrthoOrbital C 8   px \
	OrthoOrbital C 8   py \
	OrthoOrbital C 8   pz \
	OrthoOrbital C 9   s \
	OrthoOrbital C 9   p \
	OrthoOrbital C 9   px \
	OrthoOrbital C 9   py \
	OrthoOrbital C 9   pz \
	OrthoOrbital C 10   s \
	OrthoOrbital C 10   p \
	OrthoOrbital C 10   px \
	OrthoOrbital C 10   py \
	OrthoOrbital C 10   pz \
	OrthoOrbital C 11   s \
	OrthoOrbital C 11   p \
	OrthoOrbital C 11   px \
	OrthoOrbital C 11   py \
	OrthoOrbital C 11   pz \
	OrthoOrbital C 12   s \
	OrthoOrbital C 12   p \
	OrthoOrbital C 12   px \
	OrthoOrbital C 12   py \
	OrthoOrbital C 12   pz \
	OrthoOrbital C 13   s \
	OrthoOrbital C 13   p \
	OrthoOrbital C 13   px \
	OrthoOrbital C 13   py \
	OrthoOrbital C 13   pz \
	OrthoOrbital C 14   s \
	OrthoOrbital C 14   p \
	OrthoOrbital C 14   px \
	OrthoOrbital C 14   py \
	OrthoOrbital C 14   pz \
	OrthoOrbital C 15   s \
	OrthoOrbital C 15   p \
	OrthoOrbital C 15   px \
	OrthoOrbital C 15   py \
	OrthoOrbital C 15   pz \
	OrthoOrbital C 16   s \
	OrthoOrbital C 16   p \
	OrthoOrbital C 16   px \
	OrthoOrbital C 16   py \
	OrthoOrbital C 16   pz \
	OrthoOrbital C 17   s \
	OrthoOrbital C 17   p \
	OrthoOrbital C 17   px \
	OrthoOrbital C 17   py \
	OrthoOrbital C 17   pz \
	OrthoOrbital C 18   s \
	OrthoOrbital C 18   p \
	OrthoOrbital C 18   px \
	OrthoOrbital C 18   py \
	OrthoOrbital C 18   pz \
	OrthoOrbital C 19   s \
	OrthoOrbital C 19   p \
	OrthoOrbital C 19   px \
	OrthoOrbital C 19   py \
	OrthoOrbital C 19   pz \
	OrthoOrbital C 20   s \
	OrthoOrbital C 20   p \
	OrthoOrbital C 20   px \
	OrthoOrbital C 20   py \
	OrthoOrbital C 20   pz \
	OrthoOrbital C 21   s \
	OrthoOrbital C 21   p \
	OrthoOrbital C 21   px \
	OrthoOrbital C 21   py \
	OrthoOrbital C 21   pz \
	OrthoOrbital C 22   s \
	OrthoOrbital C 22   p \
	OrthoOrbital C 22   px \
	OrthoOrbital C 22   py \
	OrthoOrbital C 22   pz \
	OrthoOrbital C 23   s \
	OrthoOrbital C 23   p \
	OrthoOrbital C 23   px \
	OrthoOrbital C 23   py \
	OrthoOrbital C 23   pz \
	OrthoOrbital C 24   s \
	OrthoOrbital C 24   p \
	OrthoOrbital C 24   px \
	OrthoOrbital C 24   py \
	OrthoOrbital C 24   pz \
	OrthoOrbital C 25   s \
	OrthoOrbital C 25   p \
	OrthoOrbital C 25   px \
	OrthoOrbital C 25   py \
	OrthoOrbital C 25   pz \
	OrthoOrbital C 26   s \
	OrthoOrbital C 26   p \
	OrthoOrbital C 26   px \
	OrthoOrbital C 26   py \
	OrthoOrbital C 26   pz \
	OrthoOrbital C 27   s \
	OrthoOrbital C 27   p \
	OrthoOrbital C 27   px \
	OrthoOrbital C 27   py \
	OrthoOrbital C 27   pz \
	OrthoOrbital C 28   s \
	OrthoOrbital C 28   p \
	OrthoOrbital C 28   px \
	OrthoOrbital C 28   py \
	OrthoOrbital C 28   pz \
	OrthoOrbital C 29   s \
	OrthoOrbital C 29   p \
	OrthoOrbital C 29   px \
	OrthoOrbital C 29   py \
	OrthoOrbital C 29   pz \
	OrthoOrbital C 30   s \
	OrthoOrbital C 30   p \
	OrthoOrbital C 30   px \
	OrthoOrbital C 30   py \
	OrthoOrbital C 30   pz \
	OrthoOrbital C 31   s \
	OrthoOrbital C 31   p \
	OrthoOrbital C 31   px \
	OrthoOrbital C 31   py \
	OrthoOrbital C 31   pz \
	OrthoOrbital C 32   s \
	OrthoOrbital C 32   p \
	OrthoOrbital C 32   px \
	OrthoOrbital C 32   py \
	OrthoOrbital C 32   pz \
	OrthoOrbital C 33   s \
	OrthoOrbital C 33   p \
	OrthoOrbital C 33   px \
	OrthoOrbital C 33   py \
	OrthoOrbital C 33   pz \
	OrthoOrbital C 34   s \
	OrthoOrbital C 34   p \
	OrthoOrbital C 34   px \
	OrthoOrbital C 34   py \
	OrthoOrbital C 34   pz \
	OrthoOrbital C 35   s \
	OrthoOrbital C 35   p \
	OrthoOrbital C 35   px \
	OrthoOrbital C 35   py \
	OrthoOrbital C 35   pz \
	OrthoOrbital C 36   s \
	OrthoOrbital C 36   p \
	OrthoOrbital C 36   px \
	OrthoOrbital C 36   py \
	OrthoOrbital C 36   pz \
	OrthoOrbital C 37   s \
	OrthoOrbital C 37   p \
	OrthoOrbital C 37   px \
	OrthoOrbital C 37   py \
	OrthoOrbital C 37   pz \
	OrthoOrbital C 38   s \
	OrthoOrbital C 38   p \
	OrthoOrbital C 38   px \
	OrthoOrbital C 38   py \
	OrthoOrbital C 38   pz \
	OrthoOrbital C 39   s \
	OrthoOrbital C 39   p \
	OrthoOrbital C 39   px \
	OrthoOrbital C 39   py \
	OrthoOrbital C 39   pz \
	OrthoOrbital C 40   s \
	OrthoOrbital C 40   p \
	OrthoOrbital C 40   px \
	OrthoOrbital C 40   py \
	OrthoOrbital C 40   pz \
	OrthoOrbital C 41   s \
	OrthoOrbital C 41   p \
	OrthoOrbital C 41   px \
	OrthoOrbital C 41   py \
	OrthoOrbital C 41   pz \
	OrthoOrbital C 42   s \
	OrthoOrbital C 42   p \
	OrthoOrbital C 42   px \
	OrthoOrbital C 42   py \
	OrthoOrbital C 42   pz \
	OrthoOrbital C 43   s \
	OrthoOrbital C 43   p \
	OrthoOrbital C 43   px \
	OrthoOrbital C 43   py \
	OrthoOrbital C 43   pz \
	OrthoOrbital C 44   s \
	OrthoOrbital C 44   p \
	OrthoOrbital C 44   px \
	OrthoOrbital C 44   py \
	OrthoOrbital C 44   pz \
	OrthoOrbital C 45   s \
	OrthoOrbital C 45   p \
	OrthoOrbital C 45   px \
	OrthoOrbital C 45   py \
	OrthoOrbital C 45   pz \
	OrthoOrbital N 1   s \
	OrthoOrbital N 1   p \
	OrthoOrbital N 1   px \
	OrthoOrbital N 1   py \
	OrthoOrbital N 1   pz \
	OrthoOrbital N 2   s \
	OrthoOrbital N 2   p \
	OrthoOrbital N 2   px \
	OrthoOrbital N 2   py \
	OrthoOrbital N 2   pz \
	OrthoOrbital N 3   s \
	OrthoOrbital N 3   p \
	OrthoOrbital N 3   px \
	OrthoOrbital N 3   py \
	OrthoOrbital N 3   pz \
	OrthoOrbital N 4   s \
	OrthoOrbital N 4   p \
	OrthoOrbital N 4   px \
	OrthoOrbital N 4   py \
	OrthoOrbital N 4   pz \
	OrthoOrbital Ti 1   s \
	OrthoOrbital Ti 1   p \
	OrthoOrbital Ti 1   px \
	OrthoOrbital Ti 1   py \
	OrthoOrbital Ti 1   pz \
	OrthoOrbital Ti 1   d \
	OrthoOrbital Ti 1   dxy \
	OrthoOrbital Ti 1   dyz \
	OrthoOrbital Ti 1   dz2 \
	OrthoOrbital Ti 1   dxz \
	OrthoOrbital Ti 1   dx2-y2 \
	OrthoOrbital O 1   s \
	OrthoOrbital O 1   p \
	OrthoOrbital O 1   px \
	OrthoOrbital O 1   py \
	OrthoOrbital O 1   pz \
	OrthoOrbital O 2   s \
	OrthoOrbital O 2   p \
	OrthoOrbital O 2   px \
	OrthoOrbital O 2   py \
	OrthoOrbital O 2   pz \
	OrthoOrbital H 1   s \
	OrthoOrbital H 2   s
dump End ElecDensity KEdensity BandEigs EigStats RhoAtom DOS Kpoints
dump Ionic State IonicPositions Lattice EigStats Ecomponents
dump 
dump 
dump 
dump 
dump 
dump 
dump 
dump 
dump-name jdft.$VAR
elec-cutoff 20
elec-eigen-algo Davidson
elec-ex-corr gga-PBE
elec-initial-magnetization 0.000000 no
elec-n-bands 136
elec-smearing Fermi 0.001
electronic-minimize  \
	dirUpdateScheme      FletcherReeves \
	linminMethod         DirUpdateRecommended \
	nIterations          100 \
	history              15 \
	knormThreshold       0 \
	energyDiffThreshold  1e-07 \
	nEnergyDiff          2 \
	alphaTstart          1 \
	alphaTmin            1e-10 \
	updateTestStepSize   yes \
	alphaTreduceFactor   0.1 \
	alphaTincreaseFactor 3 \
	nAlphaAdjustMax      3 \
	wolfeEnergy          0.0001 \
	wolfeGradient        0.9 \
	fdTest               no
exchange-regularization WignerSeitzTruncated
fluid LinearPCM 298.000000 1.013250
fluid-anion F- 0.5 MeanFieldLJ \
	epsBulk 1 \
	pMol 0 \
	epsInf 1 \
	Pvap 0 \
	sigmaBulk 0 \
	Rvdw 2.24877 \
	Res 0 \
	tauNuc 343133
fluid-cation Na+ 0.5 MeanFieldLJ \
	epsBulk 1 \
	pMol 0 \
	epsInf 1 \
	Pvap 0 \
	sigmaBulk 0 \
	Rvdw 2.19208 \
	Res 0 \
	tauNuc 343133
fluid-ex-corr lda-TF lda-PZ
fluid-gummel-loop 10 1.000000e-05
fluid-minimize  \
	dirUpdateScheme      PolakRibiere \
	linminMethod         DirUpdateRecommended \
	nIterations          400 \
	history              15 \
	knormThreshold       1e-11 \
	energyDiffThreshold  0 \
	nEnergyDiff          2 \
	alphaTstart          1 \
	alphaTmin            1e-10 \
	updateTestStepSize   yes \
	alphaTreduceFactor   0.1 \
	alphaTincreaseFactor 3 \
	nAlphaAdjustMax      6 \
	wolfeEnergy          0.0001 \
	wolfeGradient        0.9 \
	fdTest               no
fluid-solvent H2O 55.338 ScalarEOS \
	epsBulk 78.4 \
	pMol 0.92466 \
	epsInf 1.77 \
	Pvap 1.06736e-10 \
	sigmaBulk 4.62e-05 \
	Rvdw 2.61727 \
	Res 1.42 \
	tauNuc 343133 \
	poleEl 15 7 1
forces-output-coords Positions
initial-state jdft.$VAR
ion C  -0.001126416327486   0.188860796950784  43.296544449569161 1
ion C  21.043309079600089   4.140017606841500  43.265953426470944 1
ion C  18.697126889893315   8.142580982949518  43.124958766682838 1
ion C  -7.048231681182537  12.144479369861676  43.128814310783227 1
ion C  -9.371241557937529  16.162529022751837  43.229303212737527 1
ion C   4.681624611192064   0.293947491386693   0.080391687796210 1
ion C   2.293306728132396   4.316326273827420   0.225820644207489 1
ion C  -0.124110061981687   8.124991747497340   0.164782423799646 1
ion C  -2.434975118390474  12.132132526486320  43.241950812645314 1
ion C  -4.726780301415021  16.164645620987176  43.243063016444054 1
ion C   9.373163823706598   0.177248537017147  43.270550062520215 1
ion C   7.082121784510518   4.283878426874088   0.173136361621019 1
ion C  -0.030039306686936  16.053376725056118   0.087968356689495 1
ion C   2.340541540782061  20.021511682501856  43.279243154888455 1
ion C  11.751869240953710   4.124906077195743  43.235143711421848 1
ion C   9.463415541302767   8.116770088504950   0.116722930653677 1
ion C   4.668625461708938  15.921875629169385   0.189568990801230 1
ion C   6.993201565670759  20.030329404330121  43.281055887047266 1
ion C  16.397210362891897   4.110041716259762  43.175159327706332 1
ion C  14.087684828848445   8.136325408361996  43.134039595794270 1
ion C  11.774686233021816  12.142771135846312  43.219620449019260 1
ion C   9.375773665166635  16.081657998998132   0.032600918054526 1
ion C  -0.013762965134927   2.878589596047548   0.083536008381031 1
ion C  -2.421743294728991   6.796319350443015  43.234360564768252 1
ion C  -4.743864203684781  10.794910336923978  43.130026172156434 1
ion C  -7.048806546288720  14.822777049954320  43.195371089329939 1
ion C  -9.375339382988502  18.851614400676471  43.291993762969433 1
ion C   4.680560936663863   3.011680689894535   0.189143413546081 1
ion C  -0.133866339814948  10.812966452981511   0.189262153132739 1
ion C  -2.405383600793892  14.804072350070298  43.277554143131816 1
ion C  -4.724305221018481  18.851339611168964  43.287835957323097 1
ion C   9.385957305847251   2.860977437694197   0.025081857160208 1
ion C   2.274830997862805  14.613169348694017   0.251632236339781 1
ion C  -0.017922926223379  18.741431008801971  43.284837453498689 1
ion C  14.077048489698797   2.768032072350191  43.214574046562355 1
ion C  11.777856799716053   6.800510027672340  43.229204394331752 1
ion C   9.462773076465915  10.824188878090363   0.086994188372452 1
ion C   7.073453008300813  14.648715438183807   0.145740535794751 1
ion C   4.667548048150932  18.640735511619376   0.073806241758801 1
ion C  18.724405248611774   2.776431473250836  43.226931690020919 1
ion C  16.394503283202091   6.787902548246022  43.114101895072722 1
ion C  14.086479807403357  10.809179976983048  43.139428832133888 1
ion C  11.745173885871315  14.819236384662803  43.236294380800764 1
ion C   9.360820800951032  18.767544208530666  43.282242157036933 1
ion C   3.294877995100730   7.676645722573999   5.182122483813955 1
ion N   2.140436990198888  12.015509929031722   0.474583340403728 1
ion N   7.188029123628761  12.057084598418420   0.236047891160470 1
ion N   2.171384438097857   6.929473298990489   0.418301980262336 1
ion N   7.194367617180639   6.869237110471643   0.339773348798938 1
ion Ti   4.811893093150646   9.460832300452884   1.889556336922649 1
ion O   2.294128758085106   6.692616877708781   6.844555074082965 1
ion O   7.238046121314804   3.070444164436045   5.722033325208436 1
ion H   8.441484081027596   3.477738440110713   7.073552777840959 1
ion H   6.069913660685240   1.870420135209651   6.516784770530340 1
ion-species /projects/musgravc/apps/jdftx-1.6.0/build/pseudopotentials/GBRV_v1.5/$ID_pbe_v1.uspp
ion-species /projects/musgravc/apps/jdftx-1.6.0/build/pseudopotentials/GBRV_v1.5/$ID_pbe_v1.2.uspp
ion-species /projects/musgravc/apps/jdftx-1.6.0/build/pseudopotentials/GBRV_v1.5/$ID_pbe_v1.4.uspp
ion-species /projects/musgravc/apps/jdftx-1.6.0/build/pseudopotentials/GBRV_v1.5/$ID_pbe_v1.5.uspp
ion-width Ecut
ionic-minimize  \
	dirUpdateScheme      L-BFGS \
	linminMethod         DirUpdateRecommended \
	nIterations          100 \
	history              15 \
	knormThreshold       0.0001 \
	energyDiffThreshold  1e-06 \
	nEnergyDiff          2 \
	alphaTstart          1 \
	alphaTmin            1e-10 \
	updateTestStepSize   yes \
	alphaTreduceFactor   0.1 \
	alphaTincreaseFactor 3 \
	nAlphaAdjustMax      3 \
	wolfeEnergy          0.0001 \
	wolfeGradient        0.9 \
	fdTest               no
kpoint   0.000000000000   0.000000000000   0.000000000000  1.00000000000000
kpoint-folding 3 3 1 
latt-move-scale 0 0 0
latt-scale 1 1 1 
lattice  \
	  23.436261999999999  -11.733459000000000    0.000000000000000  \
	   0.017994000000000   19.941849000000001    0.000000000000000  \
	   0.000000000000000    0.000000000000000   43.256312999999999 
lattice-minimize  \
	dirUpdateScheme      L-BFGS \
	linminMethod         DirUpdateRecommended \
	nIterations          0 \
	history              15 \
	knormThreshold       0 \
	energyDiffThreshold  1e-06 \
	nEnergyDiff          2 \
	alphaTstart          1 \
	alphaTmin            1e-10 \
	updateTestStepSize   yes \
	alphaTreduceFactor   0.1 \
	alphaTincreaseFactor 3 \
	nAlphaAdjustMax      3 \
	wolfeEnergy          0.0001 \
	wolfeGradient        0.9 \
	fdTest               no
lcao-params 30 1e-06 0.001
pcm-variant CANDLE
spintype z-spin
subspace-rotation-factor 1 yes
symmetries none
symmetry-threshold 0.0001
target-mu -0.1455 no

van-der-waals D3


Applied RMS atom displacement 0 bohrs to make symmetries exact.

---------- Initializing the Grid ----------
R = 
[      23.4363     -11.7335            0  ]
[     0.017994      19.9418            0  ]
[            0            0      43.2563  ]
unit cell volume = 20225.5
G =
[   0.267976   0.157673         -0  ]
[ -0.000241801   0.314933          0  ]
[          0         -0   0.145255  ]
Minimum fftbox size, Smin = [  96  96  176  ]
Chosen fftbox size, S = [  96  96  180  ]

---------- Exchange Correlation functional ----------
Initalized PBE GGA exchange.
Initalized PBE GGA correlation.

---------- Setting up pseudopotentials ----------
Width of ionic core gaussian charges (only for fluid interactions / plotting) set to 0.397384

Reading pseudopotential file '/projects/musgravc/apps/jdftx-1.6.0/build/pseudopotentials/GBRV_v1.5/c_pbe_v1.2.uspp':
  Title: C.  Created by USPP 7.3.6 on 3-2-2014
  Reference state energy: -5.406344.  4 valence electrons in orbitals:
    |200>  occupation: 2  eigenvalue: -0.504890
    |210>  occupation: 2  eigenvalue: -0.194356
  lMax: 1  lLocal: 2  QijEcut: 5
  4 projectors sampled on a log grid with 503 points:
    l: 0  eig: -0.504890  rCut: 1.3
    l: 0  eig: 0.000000  rCut: 1.3
    l: 1  eig: -0.194357  rCut: 1.3
    l: 1  eig: 0.000000  rCut: 1.3
  Partial core density with radius 1.1
  Transforming core density to a uniform radial grid of dG=0.02 with 1464 points.
  Transforming local potential to a uniform radial grid of dG=0.02 with 1464 points.
  Transforming nonlocal projectors to a uniform radial grid of dG=0.02 with 432 points.
  Transforming density augmentations to a uniform radial grid of dG=0.02 with 1464 points.
  Transforming atomic orbitals to a uniform radial grid of dG=0.02 with 432 points.
  Core radius for overlap checks: 1.30 bohrs.

Reading pseudopotential file '/projects/musgravc/apps/jdftx-1.6.0/build/pseudopotentials/GBRV_v1.5/n_pbe_v1.2.uspp':
  Title: N.  Created by USPP 7.3.6 on 3-2-2014
  Reference state energy: -9.763716.  5 valence electrons in orbitals:
    |200>  occupation: 2  eigenvalue: -0.681964
    |210>  occupation: 3  eigenvalue: -0.260726
  lMax: 1  lLocal: 2  QijEcut: 6
  4 projectors sampled on a log grid with 491 points:
    l: 0  eig: -0.681964  rCut: 1.15
    l: 0  eig: 0.000000  rCut: 1.15
    l: 1  eig: -0.260729  rCut: 1.2
    l: 1  eig: 0.500000  rCut: 1.2
  Partial core density with radius 0.8
  Transforming core density to a uniform radial grid of dG=0.02 with 1464 points.
  Transforming local potential to a uniform radial grid of dG=0.02 with 1464 points.
  Transforming nonlocal projectors to a uniform radial grid of dG=0.02 with 432 points.
  Transforming density augmentations to a uniform radial grid of dG=0.02 with 1464 points.
  Transforming atomic orbitals to a uniform radial grid of dG=0.02 with 432 points.
  Core radius for overlap checks: 1.20 bohrs.

Reading pseudopotential file '/projects/musgravc/apps/jdftx-1.6.0/build/pseudopotentials/GBRV_v1.5/ti_pbe_v1.4.uspp':
  Title: Ti.  Created by USPP 7.3.6 on 31-3-15
  Reference state energy: -59.020943.  12 valence electrons in orbitals:
    |300>  occupation: 2  eigenvalue: -2.777623
    |310>  occupation: 6  eigenvalue: -1.894596
    |400>  occupation: 2  eigenvalue: -0.438610
    |320>  occupation: 1  eigenvalue: -0.583119
  lMax: 2  lLocal: 3  QijEcut: 6
  6 projectors sampled on a log grid with 597 points:
    l: 0  eig: -2.777624  rCut: 1.8
    l: 0  eig: -0.438611  rCut: 1.8
    l: 1  eig: -1.894596  rCut: 1.8
    l: 1  eig: 0.500000  rCut: 1.8
    l: 2  eig: -0.583118  rCut: 1.8
    l: 2  eig: 0.150000  rCut: 1.8
  Partial core density with radius 0.8
  Transforming core density to a uniform radial grid of dG=0.02 with 1464 points.
  Transforming local potential to a uniform radial grid of dG=0.02 with 1464 points.
  Transforming nonlocal projectors to a uniform radial grid of dG=0.02 with 432 points.
  Transforming density augmentations to a uniform radial grid of dG=0.02 with 1464 points.
  Transforming atomic orbitals to a uniform radial grid of dG=0.02 with 432 points.
  Core radius for overlap checks: 1.80 bohrs.

Reading pseudopotential file '/projects/musgravc/apps/jdftx-1.6.0/build/pseudopotentials/GBRV_v1.5/o_pbe_v1.2.uspp':
  Title: O.  Created by USPP 7.3.6 on 3-2-2014
  Reference state energy: -15.894388.  6 valence electrons in orbitals:
    |200>  occupation: 2  eigenvalue: -0.878823
    |210>  occupation: 4  eigenvalue: -0.332131
  lMax: 2  lLocal: 2  QijEcut: 6
  5 projectors sampled on a log grid with 511 points:
    l: 0  eig: -0.878823  rCut: 1.25
    l: 0  eig: 0.000000  rCut: 1.25
    l: 1  eig: -0.332132  rCut: 1.25
    l: 1  eig: 0.000000  rCut: 1.25
    l: 2  eig: 1.000000  rCut: 1.25
  Partial core density with radius 0.7
  Transforming core density to a uniform radial grid of dG=0.02 with 1464 points.
  Transforming local potential to a uniform radial grid of dG=0.02 with 1464 points.
  Transforming nonlocal projectors to a uniform radial grid of dG=0.02 with 432 points.
  Transforming density augmentations to a uniform radial grid of dG=0.02 with 1464 points.
  Transforming atomic orbitals to a uniform radial grid of dG=0.02 with 432 points.
  Core radius for overlap checks: 1.25 bohrs.

Reading pseudopotential file '/projects/musgravc/apps/jdftx-1.6.0/build/pseudopotentials/GBRV_v1.5/h_pbe_v1.4.uspp':
  Title: H.  Created by USPP 7.3.6 on 2-4-15
  Reference state energy: -0.458849.  1 valence electrons in orbitals:
    |100>  occupation: 1  eigenvalue: -0.238595
  lMax: 0  lLocal: 1  QijEcut: 6
  2 projectors sampled on a log grid with 395 points:
    l: 0  eig: -0.238595  rCut: 1.2
    l: 0  eig: 1.000000  rCut: 1.2
  Transforming local potential to a uniform radial grid of dG=0.02 with 1464 points.
  Transforming nonlocal projectors to a uniform radial grid of dG=0.02 with 432 points.
  Transforming density augmentations to a uniform radial grid of dG=0.02 with 1464 points.
  Transforming atomic orbitals to a uniform radial grid of dG=0.02 with 432 points.
  Core radius for overlap checks: 1.20 bohrs.

Initialized 5 species with 54 total atoms.

Folded 1 k-points by 3x3x1 to 9 k-points.

---------- Setting up k-points, bands, fillings ----------
No reducable k-points. 
Computing the number of bands and number of electrons
Reading initial fillings from file jdft.fillings.
nElectrons: 225.442530   nBands: 136   nStates: 18

----- Setting up reduced wavefunction bases (one per k-point) -----
average nbasis = 86412.556 , ideal nbasis = 86404.907

----- Initializing Supercell corresponding to k-point mesh -----
Lattice vector linear combinations in supercell:
[   3   0   0  ]
[   0   3   0  ]
[   0   0   1  ]
Supercell lattice vectors:
[  70.3088  -35.2004  0  ]
[  0.053982  59.8255  0  ]
[  0  0  43.2563  ]

Initializing DFT-D3 calculator:
	Parameters set for gga-PBE functional
	s6:  1.000  s_r6:  1.217
	s8:  0.722  s_r8:  1.000
	Per-atom parameters loaded for:
	 C:  sqrtQ[a0]:  3.105  Rcov[a0]:  1.417  CN: [ 0.00 0.99 2.00 3.00 3.98 ]
	 N:  sqrtQ[a0]:  2.712  Rcov[a0]:  1.342  CN: [ 0.00 0.99 2.01 2.99 ]
	Ti:  sqrtQ[a0]:  6.288  Rcov[a0]:  2.305  CN: [ 0.00 1.83 3.87 ]
	 O:  sqrtQ[a0]:  2.594  Rcov[a0]:  1.191  CN: [ 0.00 0.99 1.99 ]
	 H:  sqrtQ[a0]:  2.007  Rcov[a0]:  0.605  CN: [ 0.91 0.00 ]

Initializing DFT-D2 calculator for fluid / solvation:
	 C:  C6:   30.35 Eh-a0^6  R0: 2.744 a0
	 N:  C6:   21.33 Eh-a0^6  R0: 2.640 a0
	Ti:  C6:  187.33 Eh-a0^6  R0: 2.952 a0
	 O:  C6:   12.14 Eh-a0^6  R0: 2.536 a0
	 H:  C6:    2.43 Eh-a0^6  R0: 1.892 a0

---------- Setting up ewald sum ----------
Optimum gaussian width for ewald sums = 5.590847 bohr.
Real space sum over 567 unit cells with max indices [  4  4  3  ]
Reciprocal space sum over 7803 terms with max indices [  8  8  13  ]

Computing DFT-D3 correction:
# coordination-number C 3.300 3.321 3.333 3.330 3.312 3.290 3.317 3.517 3.329 3.313 3.303 3.333 3.301 3.299 3.323 3.644 3.262 3.300 3.317 3.331 3.326 3.303 3.300 3.326 3.334 3.318 3.299 3.267 3.516 3.323 3.301 3.306 3.314 3.300 3.312 3.326 3.633 3.326 3.287 3.311 3.330 3.332 3.322 3.300 2.005
# coordination-number N 3.168 3.175 3.182 3.180
# coordination-number Ti 6.375
# coordination-number O 1.022 1.992
# coordination-number H 0.993 0.993
# diagonal-C6 C 24.29 24.07 23.95 23.97 24.17 24.37 24.11 21.39 23.99 24.16 24.26 23.95 24.27 24.29 24.05 19.80 24.61 24.29 24.11 23.96 24.02 24.26 24.28 24.01 23.94 24.10 24.29 24.57 21.40 24.05 24.27 24.23 24.14 24.29 24.17 24.02 19.90 24.02 24.40 24.17 23.98 23.96 24.06 24.28 29.48
# diagonal-C6 N 15.60 15.60 15.60 15.60
# diagonal-C6 Ti 321.59
# diagonal-C6 O 12.79 10.41
# diagonal-C6 H 3.09 3.09
EvdW_6 =   -0.043040
EvdW_8 =   -0.033294

---------- Allocating electronic variables ----------
Initializing wave functions:  reading from 'jdft.wfns'
----- createFluidSolver() ----- (Fluid-side solver setup)
   Initializing fluid molecule 'H2O'
     Initializing site 'O'
       Electron density: proportional to exp(-r/0.36935)*erfc((r-0.51523)/0.36823) with norm 6.826
       Charge density: gaussian nuclear width 0.478731 with net site charge 0.826
       Polarizability: cuspless exponential with width 0.32 and norm 3.73
       Hard sphere radius: 2.57003 bohrs
       Positions in reference frame:
         [ +0.000000 +0.000000 +0.000000 ]
     Initializing site 'H'
       Electron density: proportional to exp(-r/0.34641)*erfc((r-0)/0.390882) with norm 0.587
       Charge density: gaussian nuclear width 0.377945 with net site charge -0.413
       Polarizability: cuspless exponential with width 0.39 and norm 3.3
       Positions in reference frame:
         [ +0.000000 -1.441945 +1.122523 ]
         [ +0.000000 +1.441945 +1.122523 ]
     Net charge: 0   dipole magnitude: 0.927204
     Initializing spherical shell mfKernel with radius 2.61727 Bohr
     deltaS corrections:
       site 'O': -7.54299
       site 'H': -6.83917
   Initializing fluid molecule 'Na+'
     Initializing site 'Na'
       Electron density: proportional to exp(-r/0.19682)*erfc((r-0.71491)/0.41314) with norm 8.1383
       Charge density: gaussian nuclear width 0.365347 with net site charge -1
       Hard sphere radius: 1.86327 bohrs
       Positions in reference frame:
         [ +0.000000 +0.000000 +0.000000 ]
     Net charge: -1   dipole magnitude: 0
     Initializing gaussian mfKernel with width: 1.55004 Bohr
     deltaS corrections:
       site 'Na': -22.3555
   Initializing fluid molecule 'F-'
     Initializing site 'F'
       Electron density: proportional to exp(-r/0.38886)*erfc((r-0)/0.438782) with norm 8
       Charge density: gaussian nuclear width 0.374796 with net site charge 1
       Hard sphere radius: 2.39995 bohrs
       Positions in reference frame:
         [ +0.000000 +0.000000 +0.000000 ]
     Net charge: 1   dipole magnitude: 0
     Initializing gaussian mfKernel with width: 1.59012 Bohr
     deltaS corrections:
       site 'F': -9.04335

Correction to mu due to finite nuclear width = -0.0110869
   Cavity determined by nc: 0.00142 and sigma: 0.707107
   Nonlocal vdW cavity from gaussian model electron density with norm = 8 and sigma = 0.993594 bohr
   Charge asymmetry in cavity with sensitivity pCavity = 36.5 e-bohr/Eh
   Electrostatic cavity expanded by eta = 1.46 bohrs
   Weighted density cavitation model constrained by Nbulk: 0.0049383 bohr^-3, Pvap: 3.14029 kPa, Rvdw: 2.61727 bohr and sigmaBulk: 4.62e-05 Eh/bohr^2 at T: 298 K.
   Weighted density dispersion model using vdW pair potentials with single solvent site with sqrtC6eff: 0.77 SI.
Reading fluid state from 'jdft.fluidState'


---- Citations for features of the code used in this run ----

   Software package:
      R. Sundararaman, K. Letchworth-Weaver, K.A. Schwarz, D. Gunceler, Y. Ozhabes and T.A. Arias, 'JDFTx: software for joint density-functional theory', SoftwareX 6, 278 (2017)

   gga-PBE exchange-correlation functional:
      J.P. Perdew, K. Burke and M. Ernzerhof, Phys. Rev. Lett. 77, 3865 (1996)

   Pseudopotentials:
      KF Garrity, JW Bennett, KM Rabe and D Vanderbilt, Comput. Mater. Sci. 81, 446 (2014)

   DFT-D3 dispersion correction:
      S. Grimme, J. Antony, S. Ehrlich and H. Krieg, J. Chem. Phys. 132, 154104 (2010)

   DFT-D2 dispersion correction:
      S. Grimme, J. Comput. Chem. 27, 1787 (2006)

   Charge-asymmetric nonlocally-determined local-electric (CANDLE) solvation model:
      R. Sundararaman and W.A. Goddard III, J. Chem. Phys. 142, 064107 (2015)

   Total energy minimization with Auxiliary Hamiltonian:
      C. Freysoldt, S. Boeck, and J. Neugebauer, Phys. Rev. B 79, 241103(R) (2009)

   Grand-canonical (fixed-potential) DFT:
      R. Sundararaman, W. A. Goddard III and T. A. Arias, J. Chem. Phys. 146, 114104 (2017)

   Linear-tetrahedron sampling for density of states:
      G. Lehmann and M. Taut, Phys. status solidi (b) 54, 469 (1972)

This list may not be complete. Please suggest additional citations or
report any other bugs at https://github.com/shankar1729/jdftx/issues

Initialization completed successfully at t[s]:     21.99


Computing DFT-D3 correction:
# coordination-number C 3.300 3.321 3.333 3.330 3.312 3.290 3.317 3.517 3.329 3.313 3.303 3.333 3.301 3.299 3.323 3.644 3.262 3.300 3.317 3.331 3.326 3.303 3.300 3.326 3.334 3.318 3.299 3.267 3.516 3.323 3.301 3.306 3.314 3.300 3.312 3.326 3.633 3.326 3.287 3.311 3.330 3.332 3.322 3.300 2.005
# coordination-number N 3.168 3.175 3.182 3.180
# coordination-number Ti 6.375
# coordination-number O 1.022 1.992
# coordination-number H 0.993 0.993
# diagonal-C6 C 24.29 24.07 23.95 23.97 24.17 24.37 24.11 21.39 23.99 24.16 24.26 23.95 24.27 24.29 24.05 19.80 24.61 24.29 24.11 23.96 24.02 24.26 24.28 24.01 23.94 24.10 24.29 24.57 21.40 24.05 24.27 24.23 24.14 24.29 24.17 24.02 19.90 24.02 24.40 24.17 23.98 23.96 24.06 24.28 29.48
# diagonal-C6 N 15.60 15.60 15.60 15.60
# diagonal-C6 Ti 321.59
# diagonal-C6 O 12.79 10.41
# diagonal-C6 H 3.09 3.09
EvdW_6 =   -0.043040
EvdW_8 =   -0.033294
Shifting auxilliary hamiltonian by 0.000018 to set nElectrons=225.442530

-------- Electronic minimization -----------
	Linear fluid (dielectric constant: 78.4, screening length: 8.12261 Bohr) occupying 0.716335 of unit cell:	Completed after 3 iterations at t[s]:     54.16
	FillingsUpdate:  mu: -0.145500000  nElectrons: 225.442530  magneticMoment: [ Abs: 1.24378  Tot: -1.00092 ]
ElecMinimize: Iter:   0  G: -355.783741431822932  |grad|_K:  2.732e-07  alpha:  1.000e+00
	Linear fluid (dielectric constant: 78.4, screening length: 8.12261 Bohr) occupying 0.716331 of unit cell:	Completed after 8 iterations at t[s]:    166.85
	Linear fluid (dielectric constant: 78.4, screening length: 8.12261 Bohr) occupying 0.716334 of unit cell:	Completed after 8 iterations at t[s]:    210.63
	FillingsUpdate:  mu: -0.145500000  nElectrons: 225.442493  magneticMoment: [ Abs: 1.24329  Tot: -1.00092 ]
	SubspaceRotationAdjust: set factor to 1.08
ElecMinimize: Iter:   1  G: -355.783743282879414  |grad|_K:  1.796e-08  alpha:  1.157e-01  linmin:  1.370e-04  t[s]:    262.21
	Linear fluid (dielectric constant: 78.4, screening length: 8.12261 Bohr) occupying 0.716334 of unit cell:	Completed after 0 iterations at t[s]:    306.51
ElecMinimize: 	Predicted alpha/alphaT>3.000000, increasing alphaT to 3.469627e-01.
	Linear fluid (dielectric constant: 78.4, screening length: 8.12261 Bohr) occupying 0.716335 of unit cell:	Completed after 0 iterations at t[s]:    344.09
	Linear fluid (dielectric constant: 78.4, screening length: 8.12261 Bohr) occupying 0.716335 of unit cell:	Completed after 0 iterations at t[s]:    382.07
	FillingsUpdate:  mu: -0.145500000  nElectrons: 225.442521  magneticMoment: [ Abs: 1.24329  Tot: -1.00091 ]
	SubspaceRotationAdjust: set factor to 1.08
ElecMinimize: Iter:   2  G: -355.783743312344882  |grad|_K:  8.927e-09  alpha:  3.937e-01  linmin: -4.001e-03  t[s]:    433.71
	Linear fluid (dielectric constant: 78.4, screening length: 8.12261 Bohr) occupying 0.716335 of unit cell:	Completed after 2 iterations at t[s]:    480.07
	Linear fluid (dielectric constant: 78.4, screening length: 8.12261 Bohr) occupying 0.716335 of unit cell:	Completed after 0 iterations at t[s]:    517.17
ElecMinimize: 	Step increased G by 2.373463e-08, reducing alpha to 4.878753e-03.
	Linear fluid (dielectric constant: 78.4, screening length: 8.12261 Bohr) occupying 0.716335 of unit cell:	Completed after 0 iterations at t[s]:    602.95
ElecMinimize: 	Step increased G by 1.988911e-08, reducing alpha to 4.878753e-04.
	Linear fluid (dielectric constant: 78.4, screening length: 8.12261 Bohr) occupying 0.716335 of unit cell:	Completed after 0 iterations at t[s]:    689.45
ElecMinimize: 	Step increased G by 1.943857e-08, reducing alpha to 4.878753e-05.
ElecMinimize: 	Step failed to reduce G after 3 attempts. Quitting step.
ElecMinimize: 	Undoing step.
	Linear fluid (dielectric constant: 78.4, screening length: 8.12261 Bohr) occupying 0.716335 of unit cell:	Completed after 0 iterations at t[s]:    774.41
ElecMinimize: 	Step failed: resetting search direction.
	FillingsUpdate:  mu: -0.145500000  nElectrons: 225.442521  magneticMoment: [ Abs: 1.24329  Tot: -1.00091 ]
	SubspaceRotationAdjust: set factor to 0.759
ElecMinimize: Iter:   3  G: -355.783743292898578  |grad|_K:  2.067e-08  alpha:  4.879e-05
	Linear fluid (dielectric constant: 78.4, screening length: 8.12261 Bohr) occupying 0.716335 of unit cell:	Completed after 2 iterations at t[s]:    873.16
	Linear fluid (dielectric constant: 78.4, screening length: 8.12261 Bohr) occupying 0.716335 of unit cell:	Completed after 0 iterations at t[s]:    911.00
ElecMinimize: 	Step increased G by 3.782418e-09, reducing alpha to 1.460843e-02.
	Linear fluid (dielectric constant: 78.4, screening length: 8.12261 Bohr) occupying 0.716335 of unit cell:	Completed after 0 iterations at t[s]:    997.54
	FillingsUpdate:  mu: -0.145500000  nElectrons: 225.442521  magneticMoment: [ Abs: 1.24329  Tot: -1.00091 ]
	SubspaceRotationAdjust: set factor to 0.365
ElecMinimize: Iter:   4  G: -355.783743298790228  |grad|_K:  1.041e-08  alpha:  1.461e-02  linmin:  4.126e-03  t[s]:   1049.43
	Linear fluid (dielectric constant: 78.4, screening length: 8.12261 Bohr) occupying 0.716335 of unit cell:	Completed after 0 iterations at t[s]:   1093.04
ElecMinimize: 	Wrong curvature in test step, increasing alphaT to 4.382528e-02.
	Linear fluid (dielectric constant: 78.4, screening length: 8.12261 Bohr) occupying 0.716335 of unit cell:	Completed after 0 iterations at t[s]:   1119.41
	FillingsUpdate:  mu: -0.145500000  nElectrons: 225.442522  magneticMoment: [ Abs: 1.24329  Tot: -1.00091 ]
	SubspaceRotationAdjust: set factor to 0.472
ElecMinimize: Iter:   5  G: -355.783743299274818  |grad|_K:  8.700e-09  alpha: -5.908e-02  linmin: -5.302e-03  t[s]:   1172.62
ElecMinimize: Converged (|Delta G|<1.000000e-07 for 2 iters).
Setting wave functions to eigenvectors of Hamiltonian
Converging empty states (this may take a while): |deigs|: 1.725e-07

Computing DFT-D3 correction:
# coordination-number C 3.300 3.321 3.333 3.330 3.312 3.290 3.317 3.517 3.329 3.313 3.303 3.333 3.301 3.299 3.323 3.644 3.262 3.300 3.317 3.331 3.326 3.303 3.300 3.326 3.334 3.318 3.299 3.267 3.516 3.323 3.301 3.306 3.314 3.300 3.312 3.326 3.633 3.326 3.287 3.311 3.330 3.332 3.322 3.300 2.005
# coordination-number N 3.168 3.175 3.182 3.180
# coordination-number Ti 6.375
# coordination-number O 1.022 1.992
# coordination-number H 0.993 0.993
# diagonal-C6 C 24.29 24.07 23.95 23.97 24.17 24.37 24.11 21.39 23.99 24.16 24.26 23.95 24.27 24.29 24.05 19.80 24.61 24.29 24.11 23.96 24.02 24.26 24.28 24.01 23.94 24.10 24.29 24.57 21.40 24.05 24.27 24.23 24.14 24.29 24.17 24.02 19.90 24.02 24.40 24.17 23.98 23.96 24.06 24.28 29.48
# diagonal-C6 N 15.60 15.60 15.60 15.60
# diagonal-C6 Ti 321.59
# diagonal-C6 O 12.79 10.41
# diagonal-C6 H 3.09 3.09
EvdW_6 =   -0.043040
EvdW_8 =   -0.033294

# Ionic positions in cartesian coordinates:
ion C  -0.001126416327486   0.188860796950784  43.296544449569161 1
ion C  21.043309079600089   4.140017606841500  43.265953426470944 1
ion C  18.697126889893315   8.142580982949518  43.124958766682838 1
ion C  -7.048231681182537  12.144479369861676  43.128814310783227 1
ion C  -9.371241557937529  16.162529022751837  43.229303212737527 1
ion C   4.681624611192064   0.293947491386693   0.080391687796210 1
ion C   2.293306728132396   4.316326273827420   0.225820644207489 1
ion C  -0.124110061981687   8.124991747497340   0.164782423799646 1
ion C  -2.434975118390474  12.132132526486320  43.241950812645314 1
ion C  -4.726780301415021  16.164645620987176  43.243063016444054 1
ion C   9.373163823706598   0.177248537017147  43.270550062520215 1
ion C   7.082121784510518   4.283878426874088   0.173136361621019 1
ion C  -0.030039306686936  16.053376725056118   0.087968356689495 1
ion C   2.340541540782061  20.021511682501856  43.279243154888455 1
ion C  11.751869240953710   4.124906077195743  43.235143711421848 1
ion C   9.463415541302767   8.116770088504950   0.116722930653677 1
ion C   4.668625461708938  15.921875629169385   0.189568990801230 1
ion C   6.993201565670759  20.030329404330121  43.281055887047266 1
ion C  16.397210362891897   4.110041716259762  43.175159327706332 1
ion C  14.087684828848445   8.136325408361996  43.134039595794270 1
ion C  11.774686233021816  12.142771135846312  43.219620449019260 1
ion C   9.375773665166635  16.081657998998132   0.032600918054526 1
ion C  -0.013762965134927   2.878589596047548   0.083536008381031 1
ion C  -2.421743294728991   6.796319350443015  43.234360564768252 1
ion C  -4.743864203684781  10.794910336923978  43.130026172156434 1
ion C  -7.048806546288720  14.822777049954320  43.195371089329939 1
ion C  -9.375339382988502  18.851614400676471  43.291993762969433 1
ion C   4.680560936663863   3.011680689894535   0.189143413546081 1
ion C  -0.133866339814948  10.812966452981511   0.189262153132739 1
ion C  -2.405383600793892  14.804072350070298  43.277554143131816 1
ion C  -4.724305221018481  18.851339611168964  43.287835957323097 1
ion C   9.385957305847251   2.860977437694197   0.025081857160208 1
ion C   2.274830997862805  14.613169348694017   0.251632236339781 1
ion C  -0.017922926223379  18.741431008801971  43.284837453498689 1
ion C  14.077048489698797   2.768032072350191  43.214574046562355 1
ion C  11.777856799716053   6.800510027672340  43.229204394331752 1
ion C   9.462773076465915  10.824188878090363   0.086994188372452 1
ion C   7.073453008300813  14.648715438183807   0.145740535794751 1
ion C   4.667548048150932  18.640735511619376   0.073806241758801 1
ion C  18.724405248611774   2.776431473250836  43.226931690020919 1
ion C  16.394503283202091   6.787902548246022  43.114101895072722 1
ion C  14.086479807403357  10.809179976983048  43.139428832133888 1
ion C  11.745173885871315  14.819236384662803  43.236294380800764 1
ion C   9.360820800951032  18.767544208530666  43.282242157036933 1
ion C   3.294877995100730   7.676645722573999   5.182122483813955 1
ion N   2.140436990198888  12.015509929031722   0.474583340403728 1
ion N   7.188029123628761  12.057084598418420   0.236047891160470 1
ion N   2.171384438097857   6.929473298990489   0.418301980262336 1
ion N   7.194367617180639   6.869237110471643   0.339773348798938 1
ion Ti   4.811893093150646   9.460832300452884   1.889556336922649 1
ion O   2.294128758085106   6.692616877708781   6.844555074082965 1
ion O   7.238046121314804   3.070444164436045   5.722033325208436 1
ion H   8.441484081027596   3.477738440110713   7.073552777840959 1
ion H   6.069913660685240   1.870420135209651   6.516784770530340 1

# Forces in Cartesian coordinates:
force C   0.000471926278280   0.001397083569217   0.000142229153275 1
force C  -0.000861517850116   0.001460946225549  -0.000009798354965 1
force C   0.000425261957002   0.000166076162887   0.000308186061472 1
force C   0.000127956740083   0.000981167750839  -0.000046527389435 1
force C  -0.000731056823184   0.000350105106383  -0.000005762419886 1
force C   0.000382488633487  -0.000098383569927  -0.000014659060652 1
force C  -0.000458818334774   0.000152880805301  -0.000227388525100 1
force C  -0.000485541577784   0.003334816909313  -0.000597528581548 1
force C  -0.000431332374235   0.001028527757513   0.000255837538063 1
force C   0.000839177398555   0.000158265954716  -0.000058131940258 1
force C   0.000208753461220   0.001565361666090  -0.000066143341608 1
force C   0.000883275937008   0.000056991883897  -0.000521684082564 1
force C   0.001160847088223   0.001370731976981   0.000115332427254 1
force C   0.001047122043374   0.000729844560581   0.000211453411307 1
force C   0.001639625749774   0.001628368533848   0.000132862343837 1
force C   0.000918864748449   0.003532280248858  -0.000386982426263 1
force C   0.000077830339645  -0.000175899412525  -0.000055551424808 1
force C  -0.000316320430523   0.000563408281644  -0.000022654085856 1
force C   0.000413499625328   0.001235513829819   0.000042010919371 1
force C   0.000104942391568   0.000556566317430   0.000105939058081 1
force C   0.000709798475120   0.001155891193810   0.000113418054778 1
force C  -0.000300011357904   0.001590890011172   0.000001717802699 1
force C   0.001066108241406  -0.000997627913228  -0.000081447734265 1
force C  -0.000799148643334  -0.001698792794351   0.000172291505049 1
force C   0.000122470652156  -0.000096632053378   0.000169124053810 1
force C  -0.000077442013558  -0.000639256093018  -0.000235112362629 1
force C   0.000155770624351  -0.000447513217093   0.000099047350554 1
force C  -0.000121310717479   0.000005617255911  -0.000390102958873 1
force C  -0.000649261162356  -0.003843059215975  -0.000335889621168 1
force C  -0.001140908730629  -0.000838756340870   0.000123049958890 1
force C  -0.000681786962363  -0.000288883641216   0.000081313893209 1
force C  -0.001500641132952  -0.001741706742322  -0.000234160405638 1
force C  -0.000412911174344   0.000118552045508  -0.000203905301836 1
force C  -0.000152861291053  -0.001601670329709   0.000164447901867 1
force C  -0.001561681570435  -0.000594626901008   0.000161584976958 1
force C   0.000058094136931  -0.001690587868809   0.000239516629658 1
force C   0.000627599193576  -0.003774259254142  -0.000064804300985 1
force C  -0.000143368346436  -0.000099763271162  -0.000097797309011 1
force C  -0.000261640957902   0.000306068187676   0.000083985116026 1
force C   0.000348284345795  -0.000490777561356   0.000109737483593 1
force C  -0.000110709958292  -0.000857884121830   0.000197370919981 1
force C  -0.000503961533991  -0.000151731960159   0.000042925433782 1
force C   0.000509063839824  -0.001487398634224   0.000009572952344 1
force C  -0.000161871961438  -0.001666619592524   0.000028998551678 1
force C   0.005183701955643   0.005093180227957  -0.008279256027362 1
force N   0.002499505984486   0.000470632425865   0.000779686950823 1
force N  -0.001894969291889   0.001087057218744   0.000018306468806 1
force N   0.001611418228221  -0.000612822967152   0.000625501414929 1
force N  -0.002394702781642  -0.001115264270389  -0.000070785894952 1
force Ti  -0.001493190707591  -0.001250225409439   0.000782405292979 1
force O  -0.004279300366724  -0.003763796148005   0.005882734135902 1
force O   0.000485680911925   0.000246403537072  -0.000015450766656 1
force H   0.000054486348568  -0.000144295650445   0.000369435231327 1
force H  -0.000131702924951  -0.000328568721304   0.000445173617859 1

# Energy components:
   A_diel =        0.0089210817286767
   Eewald =     1658.7463252092943549
       EH =     1965.7867448529723333
     Eloc =    -4157.4443987363329143
      Enl =       52.5812669415965743
     EvdW =       -0.0763340408545283
      Exc =     -109.2867666346324853
 Exc_core =        3.3095748173340440
       KE =      197.7828680993435171
  MuShift =        0.0061806859857545
-------------------------------------
     Etot =     -388.5856177235646101
       TS =        0.0000124656881791
-------------------------------------
        F =     -388.5856301892528109
      muN =      -32.8018868899779932
-------------------------------------
        G =     -355.7837432992748177


Dumping 'jdft.fillings' ... done
Dumping 'jdft.wfns' ... done
Dumping 'jdft.fluidState' ... done
Dumping 'jdft.ionpos' ... done
Dumping 'jdft.lattice' ... done
Dumping 'jdft.eigenvals' ... done
Dumping 'jdft.eigStats' ... 
	eMin: -2.277666 at state 9 ( [ +0.000000 +0.000000 +0.000000 ] spin -1 )
	HOMO: -0.150553 at state 4 ( [ +0.333333 +0.333333 +0.000000 ] spin 1 )
	mu  : -0.145500
	LUMO: -0.134735 at state 16 ( [ -0.333333 +0.333333 +0.000000 ] spin -1 )
	eMax: +0.018528 at state 0 ( [ +0.000000 +0.000000 +0.000000 ] spin 1 )
	HOMO-LUMO gap: +0.015819
	Optical gap  : +0.024618 at state 4 ( [ +0.333333 +0.333333 +0.000000 ] spin 1 )
Dumping 'jdft.Ecomponents' ... done
IonicMinimize: Iter:   0  G: -355.783743299274818  |grad|_K:  1.430e-03  t[s]:   1329.85

#--- Lowdin population analysis ---
# oxidation-state C +0.044 +0.048 +0.042 +0.049 +0.040 +0.045 +0.162 +0.132 +0.031 +0.040 +0.047 +0.192 +0.030 +0.045 +0.055 +0.124 +0.002 +0.047 +0.038 +0.043 +0.031 +0.028 +0.028 +0.030 +0.043 +0.041 +0.048 +0.014 +0.145 +0.053 +0.049 +0.040 +0.168 +0.044 +0.041 +0.032 +0.131 +0.172 +0.045 +0.041 +0.049 +0.044 +0.056 +0.043 +0.122
# magnetic-moments C +0.001 -0.003 -0.000 -0.001 -0.001 -0.001 -0.013 -0.003 -0.001 +0.000 -0.002 -0.011 +0.003 -0.002 +0.000 -0.000 +0.006 -0.001 +0.001 +0.001 -0.002 -0.000 +0.002 -0.002 -0.001 +0.002 +0.000 +0.009 -0.003 -0.004 +0.001 +0.001 -0.010 +0.001 +0.000 -0.001 +0.005 -0.005 -0.000 +0.001 +0.000 +0.000 +0.004 -0.001 -0.177
# oxidation-state N -0.306 -0.318 -0.274 -0.289
# magnetic-moments N +0.013 +0.013 +0.026 +0.020
# oxidation-state Ti +1.397
# magnetic-moments Ti -0.738
# oxidation-state O -0.119 -0.768
# magnetic-moments O -0.090 -0.001
# oxidation-state H +0.450 +0.444
# magnetic-moments H -0.000 +0.000


Computing DFT-D3 correction:
# coordination-number C 3.299 3.321 3.333 3.330 3.312 3.290 3.317 3.517 3.329 3.312 3.302 3.332 3.301 3.299 3.323 3.643 3.263 3.300 3.318 3.331 3.326 3.303 3.300 3.326 3.334 3.318 3.299 3.268 3.516 3.323 3.301 3.306 3.314 3.300 3.311 3.326 3.632 3.325 3.287 3.311 3.329 3.332 3.322 3.300 2.006
# coordination-number N 3.168 3.175 3.182 3.180
# coordination-number Ti 6.376
# coordination-number O 1.022 1.992
# coordination-number H 0.993 0.993
# diagonal-C6 C 24.29 24.08 23.94 23.97 24.17 24.37 24.11 21.38 23.99 24.16 24.26 23.95 24.27 24.29 24.05 19.81 24.61 24.29 24.10 23.96 24.02 24.26 24.29 24.01 23.94 24.10 24.29 24.57 21.40 24.05 24.27 24.23 24.15 24.29 24.17 24.02 19.92 24.03 24.40 24.17 23.98 23.96 24.06 24.28 29.48
# diagonal-C6 N 15.60 15.60 15.60 15.60
# diagonal-C6 Ti 321.59
# diagonal-C6 O 12.79 10.41
# diagonal-C6 H 3.09 3.09
EvdW_6 =   -0.043040
EvdW_8 =   -0.033296
Shifting auxilliary hamiltonian by 0.000009 to set nElectrons=225.442522

-------- Electronic minimization -----------
	Linear fluid (dielectric constant: 78.4, screening length: 8.12261 Bohr) occupying 0.716307 of unit cell:	Completed after 7 iterations at t[s]:   1388.62
	FillingsUpdate:  mu: -0.145500000  nElectrons: 225.442522  magneticMoment: [ Abs: 1.24320  Tot: -1.00091 ]
ElecMinimize: Iter:   0  G: -355.783651542468874  |grad|_K:  9.340e-07  alpha:  1.000e+00
	Linear fluid (dielectric constant: 78.4, screening length: 8.12261 Bohr) occupying 0.716287 of unit cell:	Completed after 8 iterations at t[s]:   1497.72
	Linear fluid (dielectric constant: 78.4, screening length: 8.12261 Bohr) occupying 0.716294 of unit cell:	Completed after 4 iterations at t[s]:   1539.30
	FillingsUpdate:  mu: -0.145500000  nElectrons: 225.442988  magneticMoment: [ Abs: 1.24450  Tot: -1.00071 ]
	SubspaceRotationAdjust: set factor to 0.484
ElecMinimize: Iter:   1  G: -355.783774265271518  |grad|_K:  5.255e-07  alpha:  6.642e-01  linmin:  7.338e-06  t[s]:   1590.64
	Linear fluid (dielectric constant: 78.4, screening length: 8.12261 Bohr) occupying 0.716284 of unit cell:	Completed after 7 iterations at t[s]:   1641.71
	Linear fluid (dielectric constant: 78.4, screening length: 8.12261 Bohr) occupying 0.716287 of unit cell:	Completed after 4 iterations at t[s]:   1682.47
	FillingsUpdate:  mu: -0.145500000  nElectrons: 225.443142  magneticMoment: [ Abs: 1.24378  Tot: -1.00062 ]
	SubspaceRotationAdjust: set factor to 0.415
ElecMinimize: Iter:   2  G: -355.783798146124468  |grad|_K:  3.569e-07  alpha:  4.096e-01  linmin:  9.972e-06  t[s]:   1736.02
	Linear fluid (dielectric constant: 78.4, screening length: 8.12261 Bohr) occupying 0.716284 of unit cell:	Completed after 4 iterations at t[s]:   1783.33
	Linear fluid (dielectric constant: 78.4, screening length: 8.12261 Bohr) occupying 0.716283 of unit cell:	Completed after 2 iterations at t[s]:   1823.13
	FillingsUpdate:  mu: -0.145500000  nElectrons: 225.443401  magneticMoment: [ Abs: 1.24453  Tot: -1.00051 ]
	SubspaceRotationAdjust: set factor to 0.377
ElecMinimize: Iter:   3  G: -355.783811084858883  |grad|_K:  2.100e-07  alpha:  4.812e-01  linmin:  8.127e-06  t[s]:   1875.77
	Linear fluid (dielectric constant: 78.4, screening length: 8.12261 Bohr) occupying 0.716280 of unit cell:	Completed after 2 iterations at t[s]:   1922.52
	Linear fluid (dielectric constant: 78.4, screening length: 8.12261 Bohr) occupying 0.716279 of unit cell:	Completed after 2 iterations at t[s]:   1962.54
	FillingsUpdate:  mu: -0.145500000  nElectrons: 225.443544  magneticMoment: [ Abs: 1.24433  Tot: -1.00044 ]
	SubspaceRotationAdjust: set factor to 0.462
ElecMinimize: Iter:   4  G: -355.783816637073869  |grad|_K:  8.665e-08  alpha:  5.944e-01  linmin: -1.217e-04  t[s]:   2014.86
	Linear fluid (dielectric constant: 78.4, screening length: 8.12261 Bohr) occupying 0.716278 of unit cell:	Completed after 2 iterations at t[s]:   2062.50
	Linear fluid (dielectric constant: 78.4, screening length: 8.12261 Bohr) occupying 0.716278 of unit cell:	Completed after 0 iterations at t[s]:   2100.17
	FillingsUpdate:  mu: -0.145500000  nElectrons: 225.443599  magneticMoment: [ Abs: 1.24389  Tot: -1.00041 ]
	SubspaceRotationAdjust: set factor to 0.533
ElecMinimize: Iter:   5  G: -355.783817875035766  |grad|_K:  4.740e-08  alpha:  7.645e-01  linmin: -2.345e-04  t[s]:   2153.65
	Linear fluid (dielectric constant: 78.4, screening length: 8.12261 Bohr) occupying 0.716278 of unit cell:	Completed after 1 iterations at t[s]:   2198.90
	Linear fluid (dielectric constant: 78.4, screening length: 8.12261 Bohr) occupying 0.716278 of unit cell:	Completed after 0 iterations at t[s]:   2235.76
	FillingsUpdate:  mu: -0.145500000  nElectrons: 225.443630  magneticMoment: [ Abs: 1.24354  Tot: -1.00039 ]
	SubspaceRotationAdjust: set factor to 0.557
ElecMinimize: Iter:   6  G: -355.783818191119110  |grad|_K:  3.803e-08  alpha:  6.484e-01  linmin: -1.452e-05  t[s]:   2289.00
	Linear fluid (dielectric constant: 78.4, screening length: 8.12261 Bohr) occupying 0.716278 of unit cell:	Completed after 1 iterations at t[s]:   2335.02
	Linear fluid (dielectric constant: 78.4, screening length: 8.12261 Bohr) occupying 0.716278 of unit cell:	Completed after 0 iterations at t[s]:   2372.83
	FillingsUpdate:  mu: -0.145500000  nElectrons: 225.443649  magneticMoment: [ Abs: 1.24313  Tot: -1.00038 ]
	SubspaceRotationAdjust: set factor to 0.517
ElecMinimize: Iter:   7  G: -355.783818338186393  |grad|_K:  2.263e-08  alpha:  4.873e-01  linmin:  1.196e-04  t[s]:   2425.29
	Linear fluid (dielectric constant: 78.4, screening length: 8.12261 Bohr) occupying 0.716278 of unit cell:	Completed after 1 iterations at t[s]:   2470.88
	Linear fluid (dielectric constant: 78.4, screening length: 8.12261 Bohr) occupying 0.716278 of unit cell:	Completed after 0 iterations at t[s]:   2508.27
	FillingsUpdate:  mu: -0.145500000  nElectrons: 225.443657  magneticMoment: [ Abs: 1.24294  Tot: -1.00038 ]
	SubspaceRotationAdjust: set factor to 0.55
ElecMinimize: Iter:   8  G: -355.783818376865554  |grad|_K:  1.321e-08  alpha:  4.034e-01  linmin: -1.073e-03  t[s]:   2562.04
	Linear fluid (dielectric constant: 78.4, screening length: 8.12261 Bohr) occupying 0.716278 of unit cell:	Completed after 0 iterations at t[s]:   2606.72
	Linear fluid (dielectric constant: 78.4, screening length: 8.12261 Bohr) occupying 0.716279 of unit cell:	Completed after 0 iterations at t[s]:   2645.04
	FillingsUpdate:  mu: -0.145500000  nElectrons: 225.443659  magneticMoment: [ Abs: 1.24266  Tot: -1.00037 ]
	SubspaceRotationAdjust: set factor to 0.663
ElecMinimize: Iter:   9  G: -355.783818407652518  |grad|_K:  1.041e-08  alpha:  7.101e-01  linmin:  8.537e-06  t[s]:   2697.56
ElecMinimize: Converged (|Delta G|<1.000000e-07 for 2 iters).
Setting wave functions to eigenvectors of Hamiltonian
Converging empty states (this may take a while): |deigs|: 1.104e-07

Computing DFT-D3 correction:
# coordination-number C 3.299 3.321 3.333 3.330 3.312 3.290 3.317 3.517 3.329 3.312 3.302 3.332 3.301 3.299 3.323 3.643 3.263 3.300 3.318 3.331 3.326 3.303 3.300 3.326 3.334 3.318 3.299 3.268 3.516 3.323 3.301 3.306 3.314 3.300 3.311 3.326 3.632 3.325 3.287 3.311 3.329 3.332 3.322 3.300 2.006
# coordination-number N 3.168 3.175 3.182 3.180
# coordination-number Ti 6.376
# coordination-number O 1.022 1.992
# coordination-number H 0.993 0.993
# diagonal-C6 C 24.29 24.08 23.94 23.97 24.17 24.37 24.11 21.38 23.99 24.16 24.26 23.95 24.27 24.29 24.05 19.81 24.61 24.29 24.10 23.96 24.02 24.26 24.29 24.01 23.94 24.10 24.29 24.57 21.40 24.05 24.27 24.23 24.15 24.29 24.17 24.02 19.92 24.03 24.40 24.17 23.98 23.96 24.06 24.28 29.48
# diagonal-C6 N 15.60 15.60 15.60 15.60
# diagonal-C6 Ti 321.59
# diagonal-C6 O 12.79 10.41
# diagonal-C6 H 3.09 3.09
EvdW_6 =   -0.043040
EvdW_8 =   -0.033296

# Ionic positions in cartesian coordinates:
ion C  -0.000655889759430   0.190260724483168  43.296686795902183 1
ion C  21.042446162039745   4.141481397030215  43.265943745295729 1
ion C  18.697550752140096   8.142749903075572  43.125267069924050 1
ion C  -7.048105124152678  12.145463381575681  43.128767900573536 1
ion C  -9.371974014470936  16.162881971821385  43.229297567497383 1
ion C   4.682005700115327   0.293851951779932   0.080377145915302 1
ion C   2.292846510087398   4.316481998595887   0.225593372862133 1
ion C  -0.124597003269694   8.128329408369819   0.164185012397841 1
ion C  -2.435407850474933  12.133163898206996  43.242206767363122 1
ion C  -4.725942523726689  16.164806730905060  43.243005001683542 1
ion C   9.373371177457591   0.178816742646403  43.270484036358347 1
ion C   7.083003660737299   4.283938262721152   0.172614794718198 1
ion C  -0.028879859308937  16.054750300996265   0.088083806296493 1
ion C   2.341587263115212  20.022244371025607  43.279454725479511 1
ion C  11.753507466993257   4.126537289692758  43.235276690945433 1
ion C   9.464333006340992   8.120305212716975   0.116336065407157 1
ion C   4.668701892338358  15.921702573720026   0.189513556556165 1
ion C   6.992883845530011  20.030895656574934  43.281033350141158 1
ion C  16.397622462807000   4.111280074052746  43.175201455805443 1
ion C  14.087788371529790   8.136884818642592  43.134145652032096 1
ion C  11.775394631786709  12.143929871003289  43.219733984253786 1
ion C   9.375472254098504  16.083251732972467   0.032602753036969 1
ion C  -0.012698256603746   2.877594812097485   0.083454677826509 1
ion C  -2.422543843082550   6.794623401611831  43.234532973453049 1
ion C  -4.743743132742850  10.794816548833769  43.130195413389991 1
ion C  -7.048885388012503  14.822140637824470  43.195136094147053 1
ion C  -9.375185012074377  18.851169731422544  43.292092927499731 1
ion C   4.680438226236159   3.011689151113613   0.188753427766952 1
ion C  -0.134517000687528  10.809126237728703   0.188926380691315 1
ion C  -2.406525909234746  14.803236437692595  43.277677310270448 1
ion C  -4.724988407691069  18.851053571490915  43.287917388396053 1
ion C   9.384455265004075   2.859238574915042   0.024847813934313 1
ion C   2.274416686978237  14.613290744702692   0.251428448217689 1
ion C  -0.018077187224657  18.739832182435428  43.285002018580307 1
ion C  14.075485408418137   2.767440289412349  43.214735748719058 1
ion C  11.777913494142759   6.798822283766697  43.229444028141153 1
ion C   9.463399275949264  10.820417462799387   0.086929501251211 1
ion C   7.073308240244156  14.648618518875809   0.145642855665483 1
ion C   4.667285007482807  18.641044423770218   0.073890344054571 1
ion C  18.724752133247346   2.775943539652647  43.227041544684255 1
ion C  16.394391173533574   6.787047508087357  43.114299383172444 1
ion C  14.085974446159142  10.809031088986055  43.139471874747414 1
ion C  11.745681550000915  14.817751829991746  43.236304070932853 1
ion C   9.360657529279369  18.765880432901309  43.282271272768355 1
ion C   3.300060297346150   7.681741746765123   5.173843344966336 1
ion N   2.142935096473151  12.015983405420753   0.475363144534295 1
ion N   7.186132754626649  12.058174499600330   0.236066314809019 1
ion N   2.172994456615854   6.928863319986502   0.418927598857009 1
ion N   7.191971514688773   6.868124690164422   0.339702680083730 1
ion Ti   4.810398502732830   9.459584919006613   1.890338859395372 1
ion O   2.289848058008156   6.688855925523943   6.850437925398611 1
ion O   7.238530402516504   3.070693411936283   5.722017991621523 1
ion H   8.441537167665940   3.477596988423433   7.073922330252030 1
ion H   6.069780558050065   1.870094410451514   6.517230061327943 1

# Forces in Cartesian coordinates:
force C   0.000363705668819   0.000113646087274   0.000098226248522 1
force C   0.000048742896102  -0.000091180089214   0.000043050150066 1
force C   0.000085957644833  -0.000303332582755   0.000293577764255 1
force C  -0.000048054787897   0.000106198605810  -0.000066709037871 1
force C  -0.000209329754608  -0.000217685399414  -0.000019349135657 1
force C   0.000094058728283  -0.000091877551429  -0.000030315318388 1
force C   0.000077549778103  -0.000136398477680  -0.000228082237133 1
force C  -0.000015460144171  -0.000047644389927  -0.000502004631602 1
force C  -0.000144371498355  -0.000202879946503   0.000250900058031 1
force C   0.000046440100115  -0.000119936640784  -0.000057810753498 1
force C  -0.000237046361879  -0.000018390058773  -0.000062954696136 1
force C   0.000014415019772  -0.000219882603351  -0.000425223361374 1
force C  -0.000034680456204   0.000036362692753   0.000080141590829 1
force C  -0.000026441855666  -0.000032853974852   0.000212358272300 1
force C  -0.000209941643698  -0.000141745679324   0.000165561549857 1
force C  -0.000299648960539   0.000043839447455  -0.000226536762166 1
force C  -0.000144404395588   0.000136246796031  -0.000060572166664 1
force C  -0.000007155169211  -0.000100765581752  -0.000000420014261 1
force C  -0.000126937569461  -0.000082320681338   0.000086873450135 1
force C  -0.000148017490451  -0.000203573965374   0.000138606575566 1
force C   0.000073961430660  -0.000363436955506   0.000125074196241 1
force C   0.000181553039800   0.000040937827298  -0.000003190784379 1
force C   0.000050791473156   0.000208999694814  -0.000102130602665 1
force C  -0.000271487781729   0.000052373625275   0.000167126880478 1
force C   0.000076481185707   0.000291389878901   0.000179484427910 1
force C  -0.000034726727390   0.000204500572142  -0.000197020966687 1
force C  -0.000073862283712   0.000043180302469   0.000104248677519 1
force C  -0.000020875459885  -0.000078440275541  -0.000368572453717 1
force C   0.000313621852084  -0.000288978824716  -0.000174807913592 1
force C   0.000130401344997   0.000079538791157   0.000164152549943 1
force C   0.000060438734332   0.000093308894684   0.000057070711211 1
force C   0.000179940441325  -0.000034784150536  -0.000257667740977 1
force C   0.000183731763243   0.000062531760190  -0.000125272146556 1
force C   0.000409947280450  -0.000034776522213   0.000130545620907 1
force C  -0.000086689716001   0.000315901200099   0.000141007963994 1
force C   0.000281023337790   0.000231073313629   0.000203316808928 1
force C  -0.000124943707336  -0.000202479759311  -0.000041678803762 1
force C  -0.000144945249636   0.000131438685181  -0.000048624044071 1
force C   0.000068674307200   0.000267254756959   0.000079419334827 1
force C   0.000000793130674   0.000218511498308   0.000083741496491 1
force C   0.000074096893851   0.000169458948428   0.000174050470165 1
force C  -0.000015117211348   0.000376608032028   0.000044324646352 1
force C  -0.000182810502756  -0.000071394558554   0.000043781701201 1
force C  -0.000106699439976  -0.000038191656823   0.000020177629570 1
force C  -0.003927408294359  -0.003852113918284   0.006571517411543 1
force N   0.000906175546562  -0.000377406841825   0.000590606617374 1
force N  -0.000731928502810  -0.000220368163869   0.000037036270536 1
force N   0.000502459038428   0.000249919859836   0.000642571417941 1
force N  -0.000868852875500   0.000158055469563  -0.000114325027728 1
force Ti  -0.001173795409740  -0.001141884987961   0.000402696597719 1
force O   0.004638827920381   0.005040689944751  -0.008807279057163 1
force O   0.000207839806983  -0.000163927895005   0.000158632009132 1
force H   0.000094523438191  -0.000117765935059   0.000397552214856 1
force H   0.000153775193954   0.000019464482764   0.000217174474168 1

# Energy components:
   A_diel =        0.0091551843931841
   Eewald =     1658.6473617845706485
       EH =     1965.6359311520122901
     Eloc =    -4157.1663871425398611
      Enl =       52.5716437118286493
     EvdW =       -0.0763364057176202
      Exc =     -109.2761089351345021
 Exc_core =        3.3095750287939114
       KE =      197.7531329393023327
  MuShift =        0.0061680704515099
-------------------------------------
     Etot =     -388.5858646120394724
       TS =        0.0000062473457816
-------------------------------------
        F =     -388.5858708593852384
      muN =      -32.8020524517327061
-------------------------------------
        G =     -355.7838184076525181


Dumping 'jdft.fillings' ... done
Dumping 'jdft.wfns' ... done
Dumping 'jdft.fluidState' ... done
Dumping 'jdft.ionpos' ... done
Dumping 'jdft.lattice' ... done
Dumping 'jdft.eigenvals' ... done
Dumping 'jdft.eigStats' ... 
	eMin: -2.278366 at state 9 ( [ +0.000000 +0.000000 +0.000000 ] spin -1 )
	HOMO: -0.151411 at state 8 ( [ -0.333333 -0.333333 +0.000000 ] spin 1 )
	mu  : -0.145500
	LUMO: -0.135634 at state 14 ( [ +0.333333 -0.333333 +0.000000 ] spin -1 )
	eMax: +0.018089 at state 0 ( [ +0.000000 +0.000000 +0.000000 ] spin 1 )
	HOMO-LUMO gap: +0.015776
	Optical gap  : +0.024469 at state 8 ( [ -0.333333 -0.333333 +0.000000 ] spin 1 )
Dumping 'jdft.Ecomponents' ... done
IonicMinimize: Iter:   1  G: -355.783818407652518  |grad|_K:  1.134e-03  alpha:  1.000e+00  linmin:  6.633e-01  t[s]:   2861.20

#--- Lowdin population analysis ---
# oxidation-state C +0.044 +0.048 +0.043 +0.049 +0.040 +0.045 +0.163 +0.132 +0.031 +0.040 +0.047 +0.192 +0.030 +0.046 +0.056 +0.124 +0.002 +0.047 +0.039 +0.043 +0.032 +0.029 +0.028 +0.031 +0.043 +0.041 +0.048 +0.015 +0.144 +0.053 +0.049 +0.040 +0.169 +0.045 +0.041 +0.033 +0.131 +0.173 +0.045 +0.041 +0.049 +0.044 +0.056 +0.043 +0.115
# magnetic-moments C +0.001 -0.003 -0.000 -0.000 -0.001 -0.001 -0.012 -0.003 -0.001 +0.000 -0.002 -0.011 +0.003 -0.002 +0.000 -0.000 +0.006 -0.001 +0.001 +0.001 -0.002 -0.000 +0.002 -0.002 -0.001 +0.002 +0.000 +0.009 -0.003 -0.004 +0.001 +0.001 -0.010 +0.001 +0.000 -0.001 +0.005 -0.005 -0.000 +0.001 +0.000 +0.000 +0.004 -0.001 -0.186
# oxidation-state N -0.307 -0.318 -0.273 -0.289
# magnetic-moments N +0.013 +0.013 +0.026 +0.020
# oxidation-state Ti +1.398
# magnetic-moments Ti -0.727
# oxidation-state O -0.128 -0.767
# magnetic-moments O -0.094 -0.001
# oxidation-state H +0.449 +0.444
# magnetic-moments H -0.000 +0.000


Computing DFT-D3 correction:
# coordination-number C 3.299 3.321 3.333 3.330 3.312 3.290 3.317 3.518 3.329 3.312 3.302 3.332 3.301 3.299 3.323 3.642 3.263 3.300 3.318 3.331 3.326 3.303 3.300 3.326 3.334 3.318 3.299 3.268 3.516 3.323 3.301 3.306 3.314 3.300 3.311 3.326 3.631 3.325 3.287 3.311 3.330 3.332 3.322 3.300 2.006
# coordination-number N 3.168 3.175 3.182 3.180
# coordination-number Ti 6.376
# coordination-number O 1.022 1.992
# coordination-number H 0.993 0.993
# diagonal-C6 C 24.29 24.08 23.94 23.97 24.17 24.37 24.11 21.38 23.99 24.16 24.26 23.95 24.28 24.29 24.05 19.81 24.61 24.29 24.10 23.96 24.02 24.26 24.29 24.01 23.94 24.10 24.29 24.57 21.40 24.05 24.27 24.23 24.15 24.29 24.17 24.02 19.92 24.03 24.40 24.17 23.98 23.96 24.06 24.28 29.48
# diagonal-C6 N 15.60 15.60 15.60 15.60
# diagonal-C6 Ti 321.59
# diagonal-C6 O 12.79 10.41
# diagonal-C6 H 3.09 3.09
EvdW_6 =   -0.043041
EvdW_8 =   -0.033296
Shifting auxilliary hamiltonian by -0.000010 to set nElectrons=225.443659

-------- Electronic minimization -----------
	Linear fluid (dielectric constant: 78.4, screening length: 8.12261 Bohr) occupying 0.716293 of unit cell:	Completed after 3 iterations at t[s]:   2918.11
	FillingsUpdate:  mu: -0.145500000  nElectrons: 225.443659  magneticMoment: [ Abs: 1.24230  Tot: -1.00037 ]
ElecMinimize: Iter:   0  G: -355.783850531801932  |grad|_K:  3.313e-07  alpha:  1.000e+00
	Linear fluid (dielectric constant: 78.4, screening length: 8.12261 Bohr) occupying 0.716302 of unit cell:	Completed after 5 iterations at t[s]:   3026.93
	Linear fluid (dielectric constant: 78.4, screening length: 8.12261 Bohr) occupying 0.716300 of unit cell:	Completed after 2 iterations at t[s]:   3067.14
	FillingsUpdate:  mu: -0.145500000  nElectrons: 225.443590  magneticMoment: [ Abs: 1.24135  Tot: -1.00039 ]
	SubspaceRotationAdjust: set factor to 0.575
ElecMinimize: Iter:   1  G: -355.783866370293310  |grad|_K:  1.963e-07  alpha:  6.811e-01  linmin:  4.771e-05  t[s]:   3120.37
	Linear fluid (dielectric constant: 78.4, screening length: 8.12261 Bohr) occupying 0.716305 of unit cell:	Completed after 6 iterations at t[s]:   3169.89
	Linear fluid (dielectric constant: 78.4, screening length: 8.12261 Bohr) occupying 0.716302 of unit cell:	Completed after 3 iterations at t[s]:   3209.44
	FillingsUpdate:  mu: -0.145500000  nElectrons: 225.443576  magneticMoment: [ Abs: 1.24154  Tot: -1.00040 ]
	SubspaceRotationAdjust: set factor to 0.41
ElecMinimize: Iter:   2  G: -355.783868780965918  |grad|_K:  1.237e-07  alpha:  2.976e-01  linmin:  8.050e-05  t[s]:   3262.63
	Linear fluid (dielectric constant: 78.4, screening length: 8.12261 Bohr) occupying 0.716303 of unit cell:	Completed after 2 iterations at t[s]:   3309.24
	Linear fluid (dielectric constant: 78.4, screening length: 8.12261 Bohr) occupying 0.716304 of unit cell:	Completed after 2 iterations at t[s]:   3348.99
	FillingsUpdate:  mu: -0.145500000  nElectrons: 225.443523  magneticMoment: [ Abs: 1.24117  Tot: -1.00041 ]
	SubspaceRotationAdjust: set factor to 0.355
ElecMinimize: Iter:   3  G: -355.783870219513688  |grad|_K:  6.673e-08  alpha:  4.465e-01  linmin: -1.436e-04  t[s]:   3401.31
	Linear fluid (dielectric constant: 78.4, screening length: 8.12261 Bohr) occupying 0.716305 of unit cell:	Completed after 2 iterations at t[s]:   3448.24
	Linear fluid (dielectric constant: 78.4, screening length: 8.12261 Bohr) occupying 0.716305 of unit cell:	Completed after 0 iterations at t[s]:   3485.51
	FillingsUpdate:  mu: -0.145500000  nElectrons: 225.443490  magneticMoment: [ Abs: 1.24108  Tot: -1.00043 ]
	SubspaceRotationAdjust: set factor to 0.485
ElecMinimize: Iter:   4  G: -355.783870794962752  |grad|_K:  2.923e-08  alpha:  5.829e-01  linmin: -7.713e-04  t[s]:   3539.60
	Linear fluid (dielectric constant: 78.4, screening length: 8.12261 Bohr) occupying 0.716306 of unit cell:	Completed after 2 iterations at t[s]:   3586.39
	Linear fluid (dielectric constant: 78.4, screening length: 8.12261 Bohr) occupying 0.716306 of unit cell:	Completed after 0 iterations at t[s]:   3624.54
	FillingsUpdate:  mu: -0.145500000  nElectrons: 225.443483  magneticMoment: [ Abs: 1.24114  Tot: -1.00043 ]
	SubspaceRotationAdjust: set factor to 0.437
ElecMinimize: Iter:   5  G: -355.783870871269642  |grad|_K:  2.629e-08  alpha:  4.286e-01  linmin: -1.745e-04  t[s]:   3677.18
	Linear fluid (dielectric constant: 78.4, screening length: 8.12261 Bohr) occupying 0.716306 of unit cell:	Completed after 0 iterations at t[s]:   3722.33
	Linear fluid (dielectric constant: 78.4, screening length: 8.12261 Bohr) occupying 0.716306 of unit cell:	Completed after 0 iterations at t[s]:   3759.71
	FillingsUpdate:  mu: -0.145500000  nElectrons: 225.443471  magneticMoment: [ Abs: 1.24118  Tot: -1.00043 ]
	SubspaceRotationAdjust: set factor to 0.547
ElecMinimize: Iter:   6  G: -355.783870946133106  |grad|_K:  2.034e-08  alpha:  4.952e-01  linmin:  9.474e-06  t[s]:   3812.66
ElecMinimize: Converged (|Delta G|<1.000000e-07 for 2 iters).
Setting wave functions to eigenvectors of Hamiltonian
Converging empty states (this may take a while): |deigs|: 9.032e-09

Computing DFT-D3 correction:
# coordination-number C 3.299 3.321 3.333 3.330 3.312 3.290 3.317 3.518 3.329 3.312 3.302 3.332 3.301 3.299 3.323 3.642 3.263 3.300 3.318 3.331 3.326 3.303 3.300 3.326 3.334 3.318 3.299 3.268 3.516 3.323 3.301 3.306 3.314 3.300 3.311 3.326 3.631 3.325 3.287 3.311 3.330 3.332 3.322 3.300 2.006
# coordination-number N 3.168 3.175 3.182 3.180
# coordination-number Ti 6.376
# coordination-number O 1.022 1.992
# coordination-number H 0.993 0.993
# diagonal-C6 C 24.29 24.08 23.94 23.97 24.17 24.37 24.11 21.38 23.99 24.16 24.26 23.95 24.28 24.29 24.05 19.81 24.61 24.29 24.10 23.96 24.02 24.26 24.29 24.01 23.94 24.10 24.29 24.57 21.40 24.05 24.27 24.23 24.15 24.29 24.17 24.02 19.92 24.03 24.40 24.17 23.98 23.96 24.06 24.28 29.48
# diagonal-C6 N 15.60 15.60 15.60 15.60
# diagonal-C6 Ti 321.59
# diagonal-C6 O 12.79 10.41
# diagonal-C6 H 3.09 3.09
EvdW_6 =   -0.043041
EvdW_8 =   -0.033296

# Ionic positions in cartesian coordinates:
ion C  -0.000548954971217   0.190217819077994  43.296713272732646 1
ion C  21.042518874421855   4.141358112055975  43.265959134573244 1
ion C  18.697557010412122   8.142628331955931  43.125356044957407 1
ion C  -7.048130286773394  12.145443664215964  43.128744646717934 1
ion C  -9.372005698375713  16.162780854992317  43.229289432177154 1
ion C   4.682017650137358   0.293825755850881   0.080365476031591 1
ion C   2.292904825788829   4.316423511532835   0.225521223936332 1
ion C  -0.124571708505536   8.128105374603180   0.164033808409158 1
ion C  -2.435434019182688  12.133025949247079  43.242283093310490 1
ion C  -4.725976844840122  16.164754047304825  43.242985791033746 1
ion C   9.373270483794952   0.178714087000474  43.270463407360417 1
ion C   7.082954642371427   4.283854625514656   0.172487492330961 1
ion C  -0.028964517282885  16.054680216866839   0.088105217382468 1
ion C   2.341512777705759  20.022188482319500  43.279519447668434 1
ion C  11.753327552838394   4.126384693419414  43.235328866132754 1
ion C   9.464164631871352   8.120102971386562   0.116274456355686 1
ion C   4.668643924263122  15.921766299089416   0.189493154899106 1
ion C   6.992901673244317  20.030824829982137  43.281033329234567 1
ion C  16.397550053334630   4.111174167086487  43.175229955098615 1
ion C  14.087727363294217   8.136776075456616  43.134189454831890 1
ion C  11.775378652259159  12.143724088879775  43.219772273060059 1
ion C   9.375559444842029  16.083169610703351   0.032600177194907 1
ion C  -0.012745122139037   2.877736972239657   0.083420393114665 1
ion C  -2.422594458658854   6.794750919822381  43.234583270883064 1
ion C  -4.743721505538137  10.794933188182958  43.130250517474160 1
ion C  -7.048892756685527  14.822258746757843  43.195076012130556 1
ion C  -9.375221536364469  18.851215703306988  43.292124346320108 1
ion C   4.680438762304606   3.011661474007405   0.188639039452733 1
ion C  -0.134358749431433  10.809260310903070   0.188880874862997 1
ion C  -2.406405298849865  14.803320395315122  43.277729572541276 1
ion C  -4.724922553816328  18.851108336226524  43.287932318675985 1
ion C   9.384616809789243   2.859336265611190   0.024765053475424 1
ion C   2.274511738656321  14.613308594435694   0.251393177605617 1
ion C  -0.017914000446002  18.739921133484224  43.285039162225978 1
ion C  14.075551320744529   2.767597160467550  43.214776973165890 1
ion C  11.778015427066183   6.799015938140151  43.229503626206906 1
ion C   9.463314243848583  10.820579501746058   0.086916723780501 1
ion C   7.073263879914588  14.648675697807320   0.145629547634129 1
ion C   4.667327703150043  18.641126920977207   0.073913442782614 1
ion C  18.724731434017272   2.776057604610003  43.227064647695464 1
ion C  16.394426468982779   6.787166196764403  43.114350697134924 1
ion C  14.086001018784994  10.809182951460262  43.139484447811711 1
ion C  11.745582335896685  14.817819989864983  43.236318523698607 1
ion C   9.360628588410425  18.765972165022145  43.282275709342521 1
ion C   3.298272647979627   7.679989011220398   5.176809875292733 1
ion N   2.143117770453276  12.015815193843345   0.475533464517295 1
ion N   7.185978823864871  12.058026374177599   0.236077706543118 1
ion N   2.173082002658344   6.928996718416524   0.419126925619528 1
ion N   7.191797714612790   6.868255194042098   0.339663181680689 1
ion Ti   4.810054688808290   9.459239018647155   1.890438926160252 1
ion O   2.291846075561387   6.690972820312772   6.846784596461845 1
ion O   7.238578346379242   3.070618818778239   5.722076841553376 1
ion H   8.441569768235249   3.477564003378921   7.074046260129266 1
ion H   6.069846881162337   1.870124111488106   6.517281988598121 1

# Forces in Cartesian coordinates:
force C   0.000267554140606   0.000195413038124   0.000093742933533 1
force C  -0.000037784450464   0.000039040456929   0.000040468793522 1
force C   0.000062565287399  -0.000141605437656   0.000285269022016 1
force C  -0.000016415469132   0.000186247952562  -0.000059586567931 1
force C  -0.000226621385542  -0.000127531798684  -0.000016127059279 1
force C   0.000083948776567  -0.000103829982104  -0.000032623765628 1
force C   0.000063866661662  -0.000051122371334  -0.000199440234019 1
force C  -0.000036983822331   0.000182930306004  -0.000472081476315 1
force C  -0.000051546542611  -0.000079640688469   0.000244025711432 1
force C   0.000104458265573  -0.000062596725703  -0.000049772607063 1
force C  -0.000107763916565   0.000068414795318  -0.000059437072775 1
force C   0.000047462582407  -0.000165416019601  -0.000438934164441 1
force C   0.000089117295446   0.000095798117890   0.000081149624634 1
force C   0.000078129368816   0.000075744129448   0.000205861322807 1
force C  -0.000027170795070   0.000049505813563   0.000156080458749 1
force C  -0.000203954791316   0.000260852832082  -0.000228010766698 1
force C  -0.000094865092171   0.000133683651544  -0.000064786772336 1
force C  -0.000017520522459  -0.000003769959353   0.000001564726752 1
force C  -0.000068124706855   0.000063642306710   0.000086633938778 1
force C  -0.000056054732159  -0.000038587537495   0.000138033861540 1
force C   0.000046169953187  -0.000174091666671   0.000117346494955 1
force C   0.000071246166134   0.000116596621020  -0.000001942784763 1
force C   0.000123816883367   0.000081337387644  -0.000102491549690 1
force C  -0.000216103442509  -0.000088857348322   0.000148782894160 1
force C   0.000037950984083   0.000159640475295   0.000176025109647 1
force C  -0.000039880958981   0.000108688197243  -0.000191369128335 1
force C  -0.000009289723616  -0.000028095795589   0.000098253696491 1
force C  -0.000002199291391  -0.000093449333332  -0.000365466143928 1
force C   0.000203235360556  -0.000465272151959  -0.000184524675681 1
force C   0.000011544666636  -0.000019634284456   0.000159860058082 1
force C  -0.000004539086609   0.000026348139526   0.000050706065473 1
force C  -0.000000818220416  -0.000142990508688  -0.000250752543975 1
force C   0.000137339130328   0.000015780190656  -0.000101997982239 1
force C   0.000260934255920  -0.000121605641867   0.000130846619127 1
force C  -0.000192695962123   0.000178763943501   0.000146916516281 1
force C   0.000127876621988   0.000033273830021   0.000202739771346 1
force C  -0.000127555316472  -0.000414054657901  -0.000057164800549 1
force C  -0.000137672269088   0.000069929222659  -0.000063536201023 1
force C   0.000025650041615   0.000235292572331   0.000078908519035 1
force C   0.000027312916037   0.000108367021491   0.000085062260206 1
force C   0.000032093638730   0.000041060902060   0.000176786712659 1
force C  -0.000025599650100   0.000215031730684   0.000045713341207 1
force C  -0.000096664790856  -0.000206261975469   0.000041079939331 1
force C  -0.000046122477260  -0.000109582804630   0.000022260468537 1
force C  -0.000006761204091   0.000000388894025   0.000158201292718 1
force N   0.000806249293573  -0.000250593567957   0.000546412603407 1
force N  -0.000689046261097  -0.000114912319959   0.000033580945055 1
force N   0.000357513871234   0.000048407997285   0.000539606054556 1
force N  -0.000783258383679  -0.000014813761585  -0.000135377431748 1
force Ti  -0.000848828167972  -0.000887497928820   0.000442674184903 1
force O   0.000611695713288   0.001026342410117  -0.002114195664816 1
force O   0.000205092706628  -0.000079790661774   0.000186833169066 1
force H   0.000086043927837  -0.000122083230864   0.000382835183080 1
force H   0.000130753645562  -0.000024839080496   0.000237059804655 1

# Energy components:
   A_diel =        0.0090606080154241
   Eewald =     1658.7056191638030214
       EH =     1965.7213310388726768
     Eloc =    -4157.3199542131278577
      Enl =       52.5748993773190136
     EvdW =       -0.0763368349872114
      Exc =     -109.2800287011215801
 Exc_core =        3.3095749998251223
       KE =      197.7637756918709897
  MuShift =        0.0061701577780654
-------------------------------------
     Etot =     -388.5858887117522045
       TS =        0.0000072927871712
-------------------------------------
        F =     -388.5858960045393928
      muN =      -32.8020250584063149
-------------------------------------
        G =     -355.7838709461331064


Dumping 'jdft.fillings' ... done
Dumping 'jdft.wfns' ... done
Dumping 'jdft.fluidState' ... done
Dumping 'jdft.ionpos' ... done
Dumping 'jdft.lattice' ... done
Dumping 'jdft.eigenvals' ... done
Dumping 'jdft.eigStats' ... 
	eMin: -2.278029 at state 9 ( [ +0.000000 +0.000000 +0.000000 ] spin -1 )
	HOMO: -0.151222 at state 4 ( [ +0.333333 +0.333333 +0.000000 ] spin 1 )
	mu  : -0.145500
	LUMO: -0.135305 at state 16 ( [ -0.333333 +0.333333 +0.000000 ] spin -1 )
	eMax: +0.018195 at state 0 ( [ +0.000000 +0.000000 +0.000000 ] spin 1 )
	HOMO-LUMO gap: +0.015917
	Optical gap  : +0.024699 at state 8 ( [ -0.333333 -0.333333 +0.000000 ] spin 1 )
Dumping 'jdft.Ecomponents' ... done
IonicMinimize: Iter:   2  G: -355.783870946133106  |grad|_K:  2.876e-04  alpha:  1.000e+00  linmin: -5.984e-01  t[s]:   3941.37

#--- Lowdin population analysis ---
# oxidation-state C +0.044 +0.048 +0.043 +0.049 +0.040 +0.045 +0.162 +0.132 +0.031 +0.040 +0.047 +0.192 +0.030 +0.045 +0.056 +0.123 +0.002 +0.047 +0.039 +0.043 +0.032 +0.029 +0.028 +0.031 +0.043 +0.041 +0.048 +0.015 +0.144 +0.053 +0.049 +0.040 +0.168 +0.044 +0.041 +0.033 +0.130 +0.173 +0.045 +0.041 +0.049 +0.044 +0.056 +0.043 +0.117
# magnetic-moments C +0.001 -0.003 -0.000 -0.001 -0.001 -0.001 -0.012 -0.003 -0.001 +0.000 -0.002 -0.011 +0.003 -0.002 +0.000 -0.000 +0.006 -0.001 +0.001 +0.001 -0.002 -0.000 +0.002 -0.002 -0.001 +0.002 +0.000 +0.009 -0.003 -0.004 +0.001 +0.001 -0.010 +0.001 +0.000 -0.001 +0.005 -0.005 -0.000 +0.001 +0.000 +0.000 +0.003 -0.001 -0.182
# oxidation-state N -0.307 -0.318 -0.273 -0.290
# magnetic-moments N +0.013 +0.013 +0.026 +0.020
# oxidation-state Ti +1.398
# magnetic-moments Ti -0.730
# oxidation-state O -0.123 -0.767
# magnetic-moments O -0.092 -0.001
# oxidation-state H +0.449 +0.444
# magnetic-moments H -0.000 +0.000


Computing DFT-D3 correction:
# coordination-number C 3.299 3.321 3.333 3.330 3.312 3.290 3.317 3.518 3.329 3.312 3.302 3.332 3.301 3.299 3.323 3.642 3.263 3.300 3.318 3.331 3.326 3.303 3.300 3.326 3.334 3.318 3.299 3.268 3.516 3.323 3.301 3.306 3.314 3.300 3.312 3.325 3.631 3.325 3.287 3.311 3.330 3.332 3.322 3.300 2.006
# coordination-number N 3.168 3.175 3.182 3.180
# coordination-number Ti 6.376
# coordination-number O 1.022 1.992
# coordination-number H 0.993 0.993
# diagonal-C6 C 24.29 24.08 23.94 23.97 24.17 24.37 24.11 21.38 23.99 24.16 24.26 23.95 24.28 24.29 24.05 19.81 24.61 24.29 24.10 23.96 24.02 24.26 24.29 24.01 23.94 24.10 24.29 24.57 21.40 24.05 24.27 24.23 24.15 24.29 24.17 24.02 19.93 24.03 24.40 24.17 23.98 23.96 24.06 24.28 29.48
# diagonal-C6 N 15.60 15.60 15.60 15.60
# diagonal-C6 Ti 321.59
# diagonal-C6 O 12.79 10.41
# diagonal-C6 H 3.09 3.09
EvdW_6 =   -0.043042
EvdW_8 =   -0.033296
[...]
	SubspaceRotationAdjust: set factor to 0.702
ElecMinimize: Iter:   1  G: -355.784128695006189  |grad|_K:  7.353e-08  alpha:  5.870e-01  linmin:  1.720e-04  t[s]:  46193.05
	Linear fluid (dielectric constant: 78.4, screening length: 8.12261 Bohr) occupying 0.716210 of unit cell:	Completed after 3 iterations at t[s]:  46240.66
	Linear fluid (dielectric constant: 78.4, screening length: 8.12261 Bohr) occupying 0.716210 of unit cell:	Completed after 2 iterations at t[s]:  46279.94
	FillingsUpdate:  mu: -0.145500000  nElectrons: 225.443979  magneticMoment: [ Abs: 1.23291  Tot: -1.00018 ]
	SubspaceRotationAdjust: set factor to 0.48
ElecMinimize: Iter:   2  G: -355.784129000955545  |grad|_K:  4.688e-08  alpha:  2.779e-01  linmin:  2.941e-04  t[s]:  46332.81
	Linear fluid (dielectric constant: 78.4, screening length: 8.12261 Bohr) occupying 0.716209 of unit cell:	Completed after 1 iterations at t[s]:  46378.03
	Linear fluid (dielectric constant: 78.4, screening length: 8.12261 Bohr) occupying 0.716209 of unit cell:	Completed after 0 iterations at t[s]:  46416.02
	FillingsUpdate:  mu: -0.145500000  nElectrons: 225.443976  magneticMoment: [ Abs: 1.23286  Tot: -1.00018 ]
	SubspaceRotationAdjust: set factor to 0.652
ElecMinimize: Iter:   3  G: -355.784129156448671  |grad|_K:  2.022e-08  alpha:  3.318e-01  linmin: -1.766e-03  t[s]:  46469.40
	Linear fluid (dielectric constant: 78.4, screening length: 8.12261 Bohr) occupying 0.716209 of unit cell:	Completed after 0 iterations at t[s]:  46513.36
	Linear fluid (dielectric constant: 78.4, screening length: 8.12261 Bohr) occupying 0.716209 of unit cell:	Completed after 0 iterations at t[s]:  46550.86
	FillingsUpdate:  mu: -0.145500000  nElectrons: 225.443975  magneticMoment: [ Abs: 1.23283  Tot: -1.00018 ]
	SubspaceRotationAdjust: set factor to 0.862
ElecMinimize: Iter:   4  G: -355.784129215356870  |grad|_K:  1.247e-08  alpha:  5.075e-01  linmin: -8.930e-03  t[s]:  46603.95
	Linear fluid (dielectric constant: 78.4, screening length: 8.12261 Bohr) occupying 0.716209 of unit cell:	Completed after 1 iterations at t[s]:  46649.44
	Linear fluid (dielectric constant: 78.4, screening length: 8.12261 Bohr) occupying 0.716209 of unit cell:	Completed after 0 iterations at t[s]:  46687.57
ElecMinimize: 	Step increased G by 1.263618e-08, reducing alpha to 1.605048e-02.
	Linear fluid (dielectric constant: 78.4, screening length: 8.12261 Bohr) occupying 0.716209 of unit cell:	Completed after 0 iterations at t[s]:  46774.28
ElecMinimize: 	Step increased G by 1.020993e-08, reducing alpha to 1.605048e-03.
	Linear fluid (dielectric constant: 78.4, screening length: 8.12261 Bohr) occupying 0.716209 of unit cell:	Completed after 0 iterations at t[s]:  46861.60
ElecMinimize: 	Step increased G by 1.007777e-08, reducing alpha to 1.605048e-04.
ElecMinimize: 	Step failed to reduce G after 3 attempts. Quitting step.
ElecMinimize: 	Undoing step.
	Linear fluid (dielectric constant: 78.4, screening length: 8.12261 Bohr) occupying 0.716209 of unit cell:	Completed after 0 iterations at t[s]:  46949.18
ElecMinimize: 	Step failed: resetting search direction.
	FillingsUpdate:  mu: -0.145500000  nElectrons: 225.443975  magneticMoment: [ Abs: 1.23283  Tot: -1.00018 ]
	SubspaceRotationAdjust: set factor to 0.561
ElecMinimize: Iter:   5  G: -355.784129205272279  |grad|_K:  3.094e-08  alpha:  1.605e-04
	Linear fluid (dielectric constant: 78.4, screening length: 8.12261 Bohr) occupying 0.716210 of unit cell:	Completed after 3 iterations at t[s]:  47047.92
	Linear fluid (dielectric constant: 78.4, screening length: 8.12261 Bohr) occupying 0.716209 of unit cell:	Completed after 2 iterations at t[s]:  47087.39
	FillingsUpdate:  mu: -0.145500000  nElectrons: 225.443977  magneticMoment: [ Abs: 1.23288  Tot: -1.00018 ]
	SubspaceRotationAdjust: set factor to 0.262
ElecMinimize: Iter:   6  G: -355.784129214388656  |grad|_K:  1.342e-08  alpha:  1.292e-01  linmin:  3.042e-03  t[s]:  47140.48
	Linear fluid (dielectric constant: 78.4, screening length: 8.12261 Bohr) occupying 0.716209 of unit cell:	Completed after 0 iterations at t[s]:  47185.18
ElecMinimize: 	Predicted alpha/alphaT>3.000000, increasing alphaT to 3.876549e-01.
	Linear fluid (dielectric constant: 78.4, screening length: 8.12261 Bohr) occupying 0.716210 of unit cell:	Completed after 0 iterations at t[s]:  47222.46
	Linear fluid (dielectric constant: 78.4, screening length: 8.12261 Bohr) occupying 0.716210 of unit cell:	Completed after 1 iterations at t[s]:  47261.64
ElecMinimize: 	Step increased G by 2.580236e-09, reducing alpha to 1.161551e-01.
	Linear fluid (dielectric constant: 78.4, screening length: 8.12261 Bohr) occupying 0.716209 of unit cell:	Completed after 0 iterations at t[s]:  47347.94
	FillingsUpdate:  mu: -0.145500000  nElectrons: 225.443976  magneticMoment: [ Abs: 1.23288  Tot: -1.00018 ]
	SubspaceRotationAdjust: set factor to 0.277
ElecMinimize: Iter:   7  G: -355.784129234164539  |grad|_K:  9.672e-09  alpha:  1.162e-01  linmin: -7.730e-04  t[s]:  47400.22
ElecMinimize: Converged (|Delta G|<1.000000e-07 for 2 iters).
Setting wave functions to eigenvectors of Hamiltonian
Converging empty states (this may take a while): |deigs|: 1.711e-09

Computing DFT-D3 correction:
# coordination-number C 3.300 3.321 3.334 3.331 3.312 3.291 3.318 3.522 3.329 3.313 3.303 3.335 3.301 3.300 3.323 3.665 3.264 3.300 3.318 3.332 3.326 3.303 3.300 3.327 3.334 3.319 3.300 3.269 3.521 3.323 3.302 3.306 3.315 3.300 3.312 3.326 3.653 3.327 3.288 3.312 3.330 3.332 3.322 3.300 2.012
# coordination-number N 3.169 3.177 3.186 3.182
# coordination-number Ti 6.447
# coordination-number O 1.023 1.991
# coordination-number H 0.992 0.993
# diagonal-C6 C 24.28 24.07 23.93 23.97 24.16 24.37 24.10 21.31 23.98 24.16 24.25 23.92 24.27 24.29 24.05 19.60 24.60 24.28 24.10 23.96 24.02 24.25 24.28 24.01 23.93 24.10 24.28 24.56 21.33 24.05 24.27 24.22 24.14 24.28 24.16 24.02 19.71 24.01 24.40 24.17 23.97 23.95 24.06 24.28 29.47
# diagonal-C6 N 15.60 15.60 15.60 15.60
# diagonal-C6 Ti 321.59
# diagonal-C6 O 12.79 10.41
# diagonal-C6 H 3.09 3.09
EvdW_6 =   -0.042972
EvdW_8 =   -0.033190

# Ionic positions in cartesian coordinates:
ion C  -0.002136767669892   0.190373362781508  43.290178420219988 1
ion C  21.039502560813020   4.141708913435543  43.284709419962304 1
ion C  18.693390677502833   8.143605720459481  43.178123536247085 1
ion C  -7.051423283924034  12.146182028723288  43.167159274450164 1
ion C  -9.376271473909243  16.161070401118671  43.229622073812486 1
ion C   4.679939831649739   0.289901386007291   0.049483593456131 1
ion C   2.291735462199381   4.314054476976409   0.186725693025539 1
ion C  -0.126931148672327   8.127595100662276   0.158583706793514 1
ion C  -2.437818334695653  12.132776984051777  43.273424954637164 1
ion C  -4.727702663466649  16.163392096398088  43.249601710671229 1
ion C   9.372638744631704   0.176381892682649  43.264008993830920 1
ion C   7.079932698597458   4.277082047496345   0.116096799205190 1
ion C  -0.030164645444270  16.054641946792977   0.101200458682567 1
ion C   2.339946897211819  20.024302902716478  43.307945287689790 1
ion C  11.750884618253204   4.127044059195924  43.246917450512093 1
ion C   9.456261848789190   8.118548477347959   0.077570530114085 1
ion C   4.665959675312463  15.924255549750175   0.183793933563388 1
ion C   6.991265442269462  20.032627242961613  43.303136636253292 1
ion C  16.394712168680893   4.112901736888356  43.223551714290345 1
ion C  14.084465317501959   8.137520464853926  43.176150085865920 1
ion C  11.770395125565619  12.142276173554318  43.225367039762297 1
ion C   9.372549586465517  16.084757903884086   0.025583102404271 1
ion C  -0.014898996201812   2.877488587807334   0.072497314813055 1
ion C  -2.426991227019160   6.794648320649832  43.261176490628067 1
ion C  -4.747033352184317  10.795712873092485  43.178015066868078 1
ion C  -7.052008825055039  14.822441241558804  43.208959059589183 1
ion C  -9.378221801188630  18.849339102879043  43.276817218475202 1
ion C   4.677759875353803   3.007155547557164   0.137645895659403 1
ion C  -0.135563889057307  10.807706031252836   0.195139655587895 1
ion C  -2.407987702370738  14.802928860669059  43.296921853973160 1
ion C  -4.726042826200308  18.849068945752805  43.272849319182214 1
ion C   9.383600583956877   2.855872242553926   0.004509129702110 1
ion C   2.273480560686247  14.613514761765151   0.249633784283585 1
ion C  -0.018027034096162  18.739359325820487  43.300021605128350 1
ion C  14.072918576002618   2.769633131460938  43.250988112092379 1
ion C  11.774559592998092   6.799234198465516  43.240231704996560 1
ion C   9.455562098668928  10.819267731510150   0.052878407408459 1
ion C   7.069183645100068  14.652148489725644   0.118673376594766 1
ion C   4.665600144881036  18.644107126666732   0.094205085293725 1
ion C  18.722040698881806   2.777591131070284  43.262484830069099 1
ion C  16.391000390395007   6.788228319548606  43.169953326303514 1
ion C  14.082370036789733  10.809897333103093  43.173948446366033 1
ion C  11.741039694052015  14.816281047226891  43.235735742223589 1
ion C   9.358660657463876  18.766977488535382  43.288212084858557 1
ion C   3.312541161197970   7.713620857328651   5.082104452206839 1
ion N   2.144623942553111  12.015393763962408   0.463293491156270 1
ion N   7.178214976118721  12.061472100079071   0.172945570463108 1
ion N   2.174254428561136   6.926646938044010   0.382358298625081 1
ion N   7.182891265604960   6.861343498470762   0.261888704850263 1
ion Ti   4.823468216430386   9.453004562225527   1.813470475155495 1
ion O   2.255884116592116   6.737528115514827   6.726600321933573 1
ion O   7.316754518000733   3.037375988378894   5.783868025152629 1
ion H   8.473793471372277   3.455174126624772   7.173208804900013 1
ion H   6.103576664049728   1.870368341960254   6.563486930011639 1

# Forces in Cartesian coordinates:
force C  -0.000015019611423   0.000032127379538  -0.000091801612717 1
force C   0.000079344947043   0.000011724710927   0.000027793820756 1
force C   0.000106869088865  -0.000142758988586   0.000011482397205 1
force C  -0.000090631478473  -0.000128049443353  -0.000085703588100 1
force C  -0.000045605621643  -0.000072618134240   0.000017657851358 1
force C  -0.000012088179477  -0.000021192039315   0.000122408835489 1
force C   0.000029466708406   0.000068681590209   0.000038147668346 1
force C   0.000118195844481  -0.000006588454600   0.000022904824860 1
force C  -0.000059672605163  -0.000108211640365   0.000009507693271 1
force C   0.000012089835655  -0.000029263103920   0.000110157209134 1
force C  -0.000055338415668  -0.000006130690596  -0.000089448739844 1
force C  -0.000039564243907  -0.000051227398516   0.000028838492073 1
force C  -0.000036241769266   0.000003820058445  -0.000079630395454 1
force C  -0.000070818039954  -0.000068378962717  -0.000073827848577 1
force C  -0.000141034983679  -0.000101631300561   0.000008706983189 1
force C  -0.000030038870767   0.000032767285426   0.000014039393227 1
force C  -0.000049986358837   0.000109768264114  -0.000020289487698 1
force C  -0.000053515272581  -0.000077290698332  -0.000089554840483 1
force C  -0.000050355341970  -0.000046009558626   0.000034971095208 1
force C  -0.000153249046647  -0.000106564355497   0.000048637104224 1
force C   0.000081980170379  -0.000004557386446  -0.000059235985869 1
force C   0.000057054582092   0.000020605843765  -0.000100968924336 1
force C  -0.000008153510845   0.000027878591964  -0.000007023528547 1
force C   0.000069756009446   0.000082511330655   0.000080092938908 1
force C  -0.000072518847823  -0.000001660386079  -0.000008236155394 1
force C  -0.000003449307078  -0.000033970024057  -0.000029341104844 1
force C  -0.000028196939250  -0.000036394168421   0.000083689284694 1
force C  -0.000032752312495  -0.000010771610441   0.000068662394401 1
force C   0.000118377459492   0.000020664316426  -0.000053565688623 1
force C   0.000032201899087  -0.000045881908035   0.000047667369524 1
force C   0.000002435154736   0.000007466776471   0.000094234660496 1
force C  -0.000000871130292  -0.000023577179723  -0.000028675401663 1
force C   0.000054363119338   0.000065271650019  -0.000081941159723 1
force C  -0.000037203111158  -0.000026934511948  -0.000140628979551 1
force C  -0.000020592763013  -0.000019978724267   0.000024892290824 1
force C  -0.000005793629871   0.000041066280743   0.000026167682552 1
force C   0.000074387785666   0.000083911725490   0.000028494948148 1
force C  -0.000029577027727   0.000135270578985   0.000009615878849 1
force C  -0.000060513434218   0.000014340733246  -0.000105188439039 1
force C   0.000010515745308   0.000013251682476   0.000049499347777 1
force C  -0.000012241528103   0.000138397750758   0.000057957518625 1
force C   0.000017869275792   0.000031261317343  -0.000051783893181 1
force C  -0.000003902274317  -0.000000843966577  -0.000055003934054 1
force C  -0.000035641250879   0.000013074386287  -0.000165989604123 1
force C   0.000203192489753   0.000164112264157  -0.000315711326736 1
force N   0.000165651544963  -0.000003154434811  -0.000113307998437 1
force N  -0.000119401403503  -0.000019670938129   0.000064093019686 1
force N  -0.000005143609237   0.000018857204713  -0.000076169995104 1
force N  -0.000046022546442   0.000066273536133  -0.000002742645981 1
force Ti  -0.000012244786988   0.000094649076537   0.000201707061603 1
force O  -0.000193863614253  -0.000238093071928   0.000352756668105 1
force O   0.000092143314216  -0.000009193314355   0.000092976162209 1
force H  -0.000032898768120  -0.000003228343549  -0.000026649258797 1
force H   0.000120986094308   0.000100152162327  -0.000103466567430 1

# Energy components:
   A_diel =        0.0100410124191401
   Eewald =     1660.5104645057406287
       EH =     1967.4421913691710415
     Eloc =    -4160.8769806791806332
      Enl =       52.5792755598553398
     EvdW =       -0.0761622126232846
      Exc =     -109.2928398568181763
 Exc_core =        3.3095420301654626
       KE =      197.8020804038339691
  MuShift =        0.0061645557912594
-------------------------------------
     Etot =     -388.5862233116451421
       TS =        0.0000044993948727
-------------------------------------
        F =     -388.5862278110400325
      muN =      -32.8020985768754940
-------------------------------------
        G =     -355.7841292341645385


Dumping 'jdft.fillings' ... done
Dumping 'jdft.wfns' ... done
Dumping 'jdft.fluidState' ... done
Dumping 'jdft.ionpos' ... done
Dumping 'jdft.lattice' ... done
Dumping 'jdft.eigenvals' ... done
Dumping 'jdft.eigStats' ... 
	eMin: -2.277906 at state 13 ( [ +0.333333 +0.333333 +0.000000 ] spin -1 )
	HOMO: -0.151946 at state 8 ( [ -0.333333 -0.333333 +0.000000 ] spin 1 )
	mu  : -0.145500
	LUMO: -0.135781 at state 16 ( [ -0.333333 +0.333333 +0.000000 ] spin -1 )
	eMax: +0.017821 at state 0 ( [ +0.000000 +0.000000 +0.000000 ] spin 1 )
	HOMO-LUMO gap: +0.016165
	Optical gap  : +0.024304 at state 4 ( [ +0.333333 +0.333333 +0.000000 ] spin 1 )
Dumping 'jdft.Ecomponents' ... done
IonicMinimize: Iter:  27  G: -355.784129234164539  |grad|_K:  8.269e-05  alpha:  1.000e+00  linmin: -2.101e-01  t[s]:  47527.69
IonicMinimize: Converged (|grad|_K<1.000000e-04).

#--- Lowdin population analysis ---
# oxidation-state C +0.044 +0.048 +0.043 +0.049 +0.040 +0.046 +0.162 +0.131 +0.032 +0.041 +0.048 +0.191 +0.030 +0.046 +0.056 +0.122 +0.002 +0.047 +0.039 +0.044 +0.032 +0.029 +0.029 +0.031 +0.044 +0.041 +0.049 +0.014 +0.144 +0.053 +0.049 +0.041 +0.169 +0.045 +0.041 +0.034 +0.129 +0.173 +0.045 +0.042 +0.049 +0.045 +0.056 +0.044 +0.115
# magnetic-moments C +0.001 -0.003 -0.000 -0.001 -0.001 -0.001 -0.013 -0.003 -0.000 +0.000 -0.002 -0.012 +0.003 -0.002 +0.000 -0.000 +0.005 -0.001 +0.001 +0.001 -0.002 -0.000 +0.002 -0.002 -0.001 +0.002 -0.000 +0.009 -0.003 -0.004 +0.001 +0.001 -0.010 +0.001 +0.000 -0.001 +0.005 -0.006 -0.000 +0.001 +0.000 +0.000 +0.003 -0.001 -0.186
# oxidation-state N -0.307 -0.319 -0.272 -0.289
# magnetic-moments N +0.013 +0.012 +0.026 +0.019
# oxidation-state Ti +1.393
# magnetic-moments Ti -0.715
# oxidation-state O -0.125 -0.769
# magnetic-moments O -0.096 -0.001
# oxidation-state H +0.450 +0.444
# magnetic-moments H -0.000 +0.000


Dumping 'jdft.n_up' ... done
Dumping 'jdft.n_dn' ... done
Dumping 'jdft.tau_up' ... done
Dumping 'jdft.tau_dn' ... done
Dumping 'jdft.eigenvals' ... done
Dumping 'jdft.eigStats' ... 
	eMin: -2.277906 at state 13 ( [ +0.333333 +0.333333 +0.000000 ] spin -1 )
	HOMO: -0.151946 at state 8 ( [ -0.333333 -0.333333 +0.000000 ] spin 1 )
	mu  : -0.145500
	LUMO: -0.135781 at state 16 ( [ -0.333333 +0.333333 +0.000000 ] spin -1 )
	eMax: +0.017821 at state 0 ( [ +0.000000 +0.000000 +0.000000 ] spin 1 )
	HOMO-LUMO gap: +0.016165
	Optical gap  : +0.024304 at state 4 ( [ +0.333333 +0.333333 +0.000000 ] spin 1 )
Dumping 'jdft.kPts' ... done
Dumping 'jdft.dosUp' ... done.
Dumping 'jdft.dosDn' ... done.
End date and time: Tue Aug  2 22:25:18 2022  (Duration: 0-13:13:27.84)
Done!

PROFILER:             augmentDensityGrid     0.604173 +/-     0.724988 s, 3030 calls,   1830.643162 s total
PROFILER:         augmentDensityGridGrad     0.500248 +/-     0.650778 s, 1800 calls,    900.446388 s total
PROFILER:        augmentDensitySpherical     0.000462 +/-     0.000687 s, 3030 calls,      1.398521 s total
PROFILER:    augmentDensitySphericalGrad     0.000525 +/-     0.001280 s, 2215 calls,      1.162107 s total
PROFILER:                 augmentOverlap     1.441921 +/-     2.156659 s, 6865 calls,   9898.785163 s total
PROFILER:                     diagouterI    15.094897 +/-     0.793798 s,  609 calls,   9192.792440 s total
PROFILER:              EdensityAndVscloc     9.101959 +/-     2.413523 s,  606 calls,   5515.787365 s total
PROFILER:                     EnlAndGrad     0.001486 +/-     0.002305 s, 3605 calls,      5.355392 s total
PROFILER:            ExCorrCommunication     0.065335 +/-     0.117823 s, 3990 calls,    260.687839 s total
PROFILER:               ExCorrFunctional     0.026823 +/-     0.006540 s,  703 calls,     18.856385 s total
PROFILER:                    ExCorrTotal     0.621732 +/-     0.233077 s,  703 calls,    437.077455 s total
PROFILER:                   Idag_DiagV_I    29.081896 +/-     5.555208 s,  411 calls,  11952.659371 s total
PROFILER:                    initWeights     1.947500 +/-     0.000000 s,    1 calls,      1.947500 s total
PROFILER:                    inv(matrix)     0.002829 +/-     0.004498 s,  600 calls,      1.697609 s total
PROFILER:            matrix::diagonalize     0.008297 +/-     0.005584 s, 1013 calls,      8.405178 s total
PROFILER:                    matrix::set     0.000002 +/-     0.000004 s, 63346 calls,      0.113391 s total
PROFILER:            orthoMatrix(matrix)     0.001788 +/-     0.001175 s,  656 calls,      1.173204 s total
PROFILER:     RadialFunctionR::transform     0.010867 +/-     0.102106 s,  146 calls,      1.586564 s total
PROFILER:                    reduceKmesh     0.000000 +/-     0.000000 s,    1 calls,      0.000000 s total
PROFILER:   VanDerWaalsD3::energyAndGrad     0.036800 +/-     0.004063 s,   65 calls,      2.392006 s total
PROFILER:               WavefunctionDrag    27.445179 +/-     2.465529 s,   32 calls,    878.245742 s total
PROFILER:                            Y*M     0.650368 +/-     0.832205 s, 11645 calls,   7573.538420 s total
PROFILER:                          Y1^Y2     0.684043 +/-     0.871584 s, 8890 calls,   6081.139943 s total

MEMUSAGE:                   ColumnBundle     1.340214 GB
MEMUSAGE:        complexScalarFieldTilde     0.074158 GB
MEMUSAGE:                    IndexArrays     0.023178 GB
MEMUSAGE:                         matrix     0.020731 GB
MEMUSAGE:                           misc     0.051230 GB
MEMUSAGE:                    ScalarField     0.358429 GB
MEMUSAGE:               ScalarFieldTilde     0.262436 GB
MEMUSAGE:                          Total     1.620245 GB
