
*************** JDFTx 1.7.0 (git hash 5f12716a) ***************

Start date and time: Thu Nov 10 13:39:10 2022
Executable /home/nisi6161/jdftx_alpine/build/jdftx with command-line: -i in
Running on hosts (process indices):  c3cpu-a7-u1-4.rc.int.colorado.edu (0-17)
Divided in process groups (process indices):  0 (0)  1 (1)  2 (2)  3 (3)  4 (4)  5 (5)  6 (6)  7 (7)  8 (8)  9 (9)  10 (10)  11 (11)  12 (12)  13 (13)  14 (14)  15 (15)  16 (16)  17 (17)
Resource initialization completed at t[s]:      0.06
Run totals: 18 processes, 64 threads, 0 GPUs


Input parsed successfully to the following command list (including defaults):

basis kpoint-dependent
converge-empty-states yes
coords-type Cartesian
core-overlap-check none
coulomb-interaction Periodic
davidson-band-ratio 1.1
density-of-states Etol 1.000000e-06 Esigma 1.000000e-03 \
		Complete \
	Total \
	OrthoOrbital H 1   s \
	OrthoOrbital H 2   s
dump End ElecDensity KEdensity BandEigs EigStats RhoAtom DOS Kpoints
dump Ionic State IonicPositions Lattice EigStats Ecomponents
dump 
dump 
dump 
dump 
dump 
dump 
dump 
dump 
dump-name jdft.$VAR
elec-cutoff 20
elec-eigen-algo Davidson
elec-ex-corr gga-PBE
elec-initial-magnetization 0.000000 no
elec-n-bands 11
elec-smearing Fermi 0.001
electronic-minimize  \
	dirUpdateScheme      FletcherReeves \
	linminMethod         DirUpdateRecommended \
	nIterations          100 \
	history              15 \
	knormThreshold       0 \
	energyDiffThreshold  1e-07 \
	nEnergyDiff          2 \
	alphaTstart          1 \
	alphaTmin            1e-10 \
	updateTestStepSize   yes \
	alphaTreduceFactor   0.1 \
	alphaTincreaseFactor 3 \
	nAlphaAdjustMax      3 \
	wolfeEnergy          0.0001 \
	wolfeGradient        0.9 \
	fdTest               no
exchange-regularization WignerSeitzTruncated
fluid LinearPCM 298.000000 1.013250
fluid-anion F- 0.5 MeanFieldLJ \
	epsBulk 1 \
	pMol 0 \
	epsInf 1 \
	Pvap 0 \
	sigmaBulk 0 \
	Rvdw 2.24877 \
	Res 0 \
	tauNuc 343133
fluid-cation Na+ 0.5 MeanFieldLJ \
	epsBulk 1 \
	pMol 0 \
	epsInf 1 \
	Pvap 0 \
	sigmaBulk 0 \
	Rvdw 2.19208 \
	Res 0 \
	tauNuc 343133
fluid-ex-corr lda-TF lda-PZ
fluid-gummel-loop 10 1.000000e-05
fluid-minimize  \
	dirUpdateScheme      PolakRibiere \
	linminMethod         DirUpdateRecommended \
	nIterations          400 \
	history              15 \
	knormThreshold       1e-11 \
	energyDiffThreshold  0 \
	nEnergyDiff          2 \
	alphaTstart          1 \
	alphaTmin            1e-10 \
	updateTestStepSize   yes \
	alphaTreduceFactor   0.1 \
	alphaTincreaseFactor 3 \
	nAlphaAdjustMax      6 \
	wolfeEnergy          0.0001 \
	wolfeGradient        0.9 \
	fdTest               no
fluid-solvent H2O 55.338 ScalarEOS \
	epsBulk 78.4 \
	pMol 0.92466 \
	epsInf 1.77 \
	Pvap 1.06736e-10 \
	sigmaBulk 4.62e-05 \
	Rvdw 2.61727 \
	Res 1.42 \
	tauNuc 343133 \
	poleEl 15 7 1
forces-output-coords Positions
ion H   0.000000000000000   0.000000000000000  -0.000510000000000 1
ion H   0.000000000000000   0.000000000000000   1.436702000000000 1
ion-species /projects/musgravc/apps/jdftx-1.6.0/build/pseudopotentials/GBRV_v1.5/$ID_pbe_v1.uspp
ion-species /projects/musgravc/apps/jdftx-1.6.0/build/pseudopotentials/GBRV_v1.5/$ID_pbe_v1.2.uspp
ion-species /projects/musgravc/apps/jdftx-1.6.0/build/pseudopotentials/GBRV_v1.5/$ID_pbe_v1.4.uspp
ion-species /projects/musgravc/apps/jdftx-1.6.0/build/pseudopotentials/GBRV_v1.5/$ID_pbe_v1.5.uspp
ion-width Ecut
ionic-minimize  \
	dirUpdateScheme      L-BFGS \
	linminMethod         DirUpdateRecommended \
	nIterations          100 \
	history              15 \
	knormThreshold       0.0001 \
	energyDiffThreshold  0.0001 \
	nEnergyDiff          2 \
	alphaTstart          1 \
	alphaTmin            1e-10 \
	updateTestStepSize   yes \
	alphaTreduceFactor   0.1 \
	alphaTincreaseFactor 3 \
	nAlphaAdjustMax      3 \
	wolfeEnergy          0.0001 \
	wolfeGradient        0.9 \
	fdTest               no
kpoint   0.000000000000   0.000000000000   0.000000000000  1.00000000000000
kpoint-folding 7 7 7 
latt-move-scale 0 0 0
latt-scale 1 1 1 
lattice  \
	  18.897261000000000    0.000000000000000    0.000000000000000  \
	   0.000000000000000   18.897261000000000    0.000000000000000  \
	   0.000000000000000    0.000000000000000   18.897261000000000 
lattice-minimize  \
	dirUpdateScheme      L-BFGS \
	linminMethod         DirUpdateRecommended \
	nIterations          0 \
	history              15 \
	knormThreshold       0 \
	energyDiffThreshold  1e-06 \
	nEnergyDiff          2 \
	alphaTstart          1 \
	alphaTmin            1e-10 \
	updateTestStepSize   yes \
	alphaTreduceFactor   0.1 \
	alphaTincreaseFactor 3 \
	nAlphaAdjustMax      3 \
	wolfeEnergy          0.0001 \
	wolfeGradient        0.9 \
	fdTest               no
lcao-params 30 1e-06 0.001
pcm-variant CANDLE
spintype z-spin
subspace-rotation-factor 1 yes
symmetries none
symmetry-threshold 0.0001
van-der-waals D3
vibrations \
	dr 0.01\
	centralDiff no\
	useConstraints yes\
	translationSym yes\
	rotationSym no\
	omegaMin 0.0002\
	T 298\
	omegaResolution 0.0001


Applied RMS atom displacement 0 bohrs to make symmetries exact.
Applied RMS atom displacement 0 bohrs to make symmetries exact.

---------- Initializing the Grid ----------
R = 
[      18.8973            0            0  ]
[            0      18.8973            0  ]
[            0            0      18.8973  ]
unit cell volume = 6748.33
G =
[   0.332492          0          0  ]
[          0   0.332492          0  ]
[          0          0   0.332492  ]
Minimum fftbox size, Smin = [  80  80  80  ]
Chosen fftbox size, S = [  80  80  80  ]

---------- Exchange Correlation functional ----------
Initalized PBE GGA exchange.
Initalized PBE GGA correlation.

---------- Setting up pseudopotentials ----------
Width of ionic core gaussian charges (only for fluid interactions / plotting) set to 0.397384

Reading pseudopotential file '/projects/musgravc/apps/jdftx-1.6.0/build/pseudopotentials/GBRV_v1.5/h_pbe_v1.4.uspp':
  Title: H.  Created by USPP 7.3.6 on 2-4-15
  Reference state energy: -0.458849.  1 valence electrons in orbitals:
    |100>  occupation: 1  eigenvalue: -0.238595
  lMax: 0  lLocal: 1  QijEcut: 6
  2 projectors sampled on a log grid with 395 points:
    l: 0  eig: -0.238595  rCut: 1.2
    l: 0  eig: 1.000000  rCut: 1.2
  Transforming local potential to a uniform radial grid of dG=0.02 with 1157 points.
  Transforming nonlocal projectors to a uniform radial grid of dG=0.02 with 432 points.
  Transforming density augmentations to a uniform radial grid of dG=0.02 with 1157 points.
  Transforming atomic orbitals to a uniform radial grid of dG=0.02 with 432 points.
  Core radius for overlap checks: 1.20 bohrs.

Initialized 1 species with 2 total atoms.

Folded 1 k-points by 7x7x7 to 343 k-points.

---------- Setting up k-points, bands, fillings ----------
No reducable k-points. 
Computing the number of bands and number of electrons
Calculating initial fillings.
nElectrons:   2.000000   nBands: 11   nStates: 686

----- Setting up reduced wavefunction bases (one per k-point) -----
average nbasis = 28829.222 , ideal nbasis = 28829.398

----- Initializing Supercell corresponding to k-point mesh -----
Lattice vector linear combinations in supercell:
[   7   0   0  ]
[   0   7   0  ]
[   0   0   7  ]
Supercell lattice vectors:
[  132.281  0  0  ]
[  0  132.281  0  ]
[  0  0  132.281  ]

Initializing DFT-D3 calculator:
	Parameters set for gga-PBE functional
	s6:  1.000  s_r6:  1.217
	s8:  0.722  s_r8:  1.000
	Per-atom parameters loaded for:
	 H:  sqrtQ[a0]:  2.007  Rcov[a0]:  0.605  CN: [ 0.91 0.00 ]

Initializing DFT-D2 calculator for fluid / solvation:
	 H:  C6:    2.43 Eh-a0^6  R0: 1.892 a0

---------- Setting up ewald sum ----------
Optimum gaussian width for ewald sums = 6.716411 bohr.
Real space sum over 1331 unit cells with max indices [  5  5  5  ]
Reciprocal space sum over 2197 terms with max indices [  6  6  6  ]

Computing DFT-D3 correction:
# coordination-number H 0.876 0.876
# diagonal-C6 H 3.18 3.18
EvdW_6 =   -0.000001
EvdW_8 =   -0.000000

---------- Allocating electronic variables ----------
Initializing wave functions:  linear combination of atomic orbitals
Note: number of bands (11) exceeds available atomic orbitals (2)
H pseudo-atom occupations:   s ( 1 )
	FillingsUpdate:  mu: -0.100000000  nElectrons: 2.000000  magneticMoment: [ Abs: 0.00034  Tot: -0.00000 ]
LCAOMinimize: Iter:   0  F: -1.1033185656803834  |grad|_K:  1.202e-06  alpha:  1.000e+00
	FillingsUpdate:  mu: -0.100000000  nElectrons: 2.000000  magneticMoment: [ Abs: 0.00034  Tot: +0.00000 ]
LCAOMinimize: Iter:   1  F: -1.1033186261973187  |grad|_K:  9.698e-09  alpha:  1.009e+00  linmin:  9.189e-03  cgtest: -9.097e-01  t[s]:    165.47
	FillingsUpdate:  mu: -0.100000000  nElectrons: 2.000000  magneticMoment: [ Abs: 0.00034  Tot: +0.00000 ]
LCAOMinimize: Iter:   2  F: -1.1033186261978285  |grad|_K:  9.063e-09  alpha:  8.955e-01  linmin: -4.033e-05  cgtest:  9.228e-01  t[s]:    230.56
LCAOMinimize: Converged (|Delta F|<1.000000e-06 for 2 iters).
----- createFluidSolver() ----- (Fluid-side solver setup)
   Initializing fluid molecule 'H2O'
     Initializing site 'O'
       Electron density: proportional to exp(-r/0.36935)*erfc((r-0.51523)/0.36823) with norm 6.826
       Charge density: gaussian nuclear width 0.478731 with net site charge 0.826
       Polarizability: cuspless exponential with width 0.32 and norm 3.73
       Hard sphere radius: 2.57003 bohrs
       Positions in reference frame:
         [ +0.000000 +0.000000 +0.000000 ]
     Initializing site 'H'
       Electron density: proportional to exp(-r/0.34641)*erfc((r-0)/0.390882) with norm 0.587
       Charge density: gaussian nuclear width 0.377945 with net site charge -0.413
       Polarizability: cuspless exponential with width 0.39 and norm 3.3
       Positions in reference frame:
         [ +0.000000 -1.441945 +1.122523 ]
         [ +0.000000 +1.441945 +1.122523 ]
     Net charge: 0   dipole magnitude: 0.927204
     Initializing spherical shell mfKernel with radius 2.61727 Bohr
     deltaS corrections:
       site 'O': -7.54299
       site 'H': -6.83917
   Initializing fluid molecule 'Na+'
     Initializing site 'Na'
       Electron density: proportional to exp(-r/0.19682)*erfc((r-0.71491)/0.41314) with norm 8.1383
       Charge density: gaussian nuclear width 0.365347 with net site charge -1
       Hard sphere radius: 1.86327 bohrs
       Positions in reference frame:
         [ +0.000000 +0.000000 +0.000000 ]
     Net charge: -1   dipole magnitude: 0
     Initializing gaussian mfKernel with width: 1.55004 Bohr
     deltaS corrections:
       site 'Na': -22.3555
   Initializing fluid molecule 'F-'
     Initializing site 'F'
       Electron density: proportional to exp(-r/0.38886)*erfc((r-0)/0.438782) with norm 8
       Charge density: gaussian nuclear width 0.374796 with net site charge 1
       Hard sphere radius: 2.39995 bohrs
       Positions in reference frame:
         [ +0.000000 +0.000000 +0.000000 ]
     Net charge: 1   dipole magnitude: 0
     Initializing gaussian mfKernel with width: 1.59012 Bohr
     deltaS corrections:
       site 'F': -9.04335

Correction to mu due to finite nuclear width = -0.000294058
   Cavity determined by nc: 0.00142 and sigma: 0.707107
   Nonlocal vdW cavity from gaussian model electron density with norm = 8 and sigma = 0.993594 bohr
   Charge asymmetry in cavity with sensitivity pCavity = 36.5 e-bohr/Eh
   Electrostatic cavity expanded by eta = 1.46 bohrs
   Weighted density cavitation model constrained by Nbulk: 0.0049383 bohr^-3, Pvap: 3.14029 kPa, Rvdw: 2.61727 bohr and sigmaBulk: 4.62e-05 Eh/bohr^2 at T: 298 K.
   Weighted density dispersion model using vdW pair potentials with single solvent site with sqrtC6eff: 0.77 SI.
WARNING: Vibrations: switching off translationSym and rotationSym since useConstraints is on.

---- Citations for features of the code used in this run ----

   Software package:
      R. Sundararaman, K. Letchworth-Weaver, K.A. Schwarz, D. Gunceler, Y. Ozhabes and T.A. Arias, 'JDFTx: software for joint density-functional theory', SoftwareX 6, 278 (2017)

   gga-PBE exchange-correlation functional:
      J.P. Perdew, K. Burke and M. Ernzerhof, Phys. Rev. Lett. 77, 3865 (1996)

   Pseudopotentials:
      KF Garrity, JW Bennett, KM Rabe and D Vanderbilt, Comput. Mater. Sci. 81, 446 (2014)

   DFT-D3 dispersion correction:
      S. Grimme, J. Antony, S. Ehrlich and H. Krieg, J. Chem. Phys. 132, 154104 (2010)

   DFT-D2 dispersion correction:
      S. Grimme, J. Comput. Chem. 27, 1787 (2006)

   Charge-asymmetric nonlocally-determined local-electric (CANDLE) solvation model:
      R. Sundararaman and W.A. Goddard III, J. Chem. Phys. 142, 064107 (2015)

   Total energy minimization with Auxiliary Hamiltonian:
      C. Freysoldt, S. Boeck, and J. Neugebauer, Phys. Rev. B 79, 241103(R) (2009)

   Linear-tetrahedron sampling for density of states:
      G. Lehmann and M. Taut, Phys. status solidi (b) 54, 469 (1972)

This list may not be complete. Please suggest additional citations or
report any other bugs at https://github.com/shankar1729/jdftx/issues

Initialization completed successfully at t[s]:    234.09

------ Vibrations::calculate() -------
WARNING: Vibrations module is experimental. Please report bugs!
Compare results with and without symmetries and report discrepancies.
Degrees of freedom: 6 total, 6 symmetry-independent.

Computing DFT-D3 correction:
# coordination-number H 0.876 0.876
# diagonal-C6 H 3.18 3.18
EvdW_6 =   -0.000001
EvdW_8 =   -0.000000
Fluid solver invoked on fresh (random / LCAO) wavefunctions
Running a vacuum solve first:

-------- Initial electronic minimization -----------
	FillingsUpdate:  mu: -0.100000000  nElectrons: 2.000000  magneticMoment: [ Abs: 0.00034  Tot: +0.00000 ]
ElecMinimize: Iter:   0  F: -1.103318626197825  |grad|_K:  1.245e-05  alpha:  1.000e+00
	FillingsUpdate:  mu: -0.100000000  nElectrons: 2.000000  magneticMoment: [ Abs: 0.00015  Tot: +0.00000 ]
	SubspaceRotationAdjust: set factor to 1
ElecMinimize: Iter:   1  F: -1.163652542779554  |grad|_K:  2.290e-06  alpha:  1.787e+00  linmin: -3.284e-03  t[s]:    354.10
	FillingsUpdate:  mu: -0.100000000  nElectrons: 2.000000  magneticMoment: [ Abs: 0.00008  Tot: +0.00000 ]
	SubspaceRotationAdjust: set factor to 0.992
ElecMinimize: Iter:   2  F: -1.165011833880158  |grad|_K:  5.284e-07  alpha:  1.106e+00  linmin: -1.870e-04  t[s]:    423.59
	FillingsUpdate:  mu: -0.100000000  nElectrons: 2.000000  magneticMoment: [ Abs: 0.00004  Tot: -0.00000 ]
	SubspaceRotationAdjust: set factor to 0.781
ElecMinimize: Iter:   3  F: -1.165107999164453  |grad|_K:  1.989e-07  alpha:  1.541e+00  linmin:  5.807e-05  t[s]:    493.61
	FillingsUpdate:  mu: -0.100000000  nElectrons: 2.000000  magneticMoment: [ Abs: 0.00001  Tot: +0.00000 ]
	SubspaceRotationAdjust: set factor to 0.728
ElecMinimize: Iter:   4  F: -1.165118643937761  |grad|_K:  5.695e-08  alpha:  1.308e+00  linmin: -5.646e-06  t[s]:    563.16
	FillingsUpdate:  mu: -0.100000000  nElectrons: 2.000000  magneticMoment: [ Abs: 0.00000  Tot: +0.00000 ]
	SubspaceRotationAdjust: set factor to 0.8
ElecMinimize: Iter:   5  F: -1.165119535563930  |grad|_K:  1.578e-08  alpha:  1.255e+00  linmin:  4.259e-06  t[s]:    632.83
	FillingsUpdate:  mu: -0.100000000  nElectrons: 2.000000  magneticMoment: [ Abs: 0.00000  Tot: -0.00000 ]
	SubspaceRotationAdjust: set factor to 0.885
ElecMinimize: Iter:   6  F: -1.165119606051774  |grad|_K:  5.124e-09  alpha:  1.312e+00  linmin:  5.616e-07  t[s]:    703.02
	FillingsUpdate:  mu: -0.100000000  nElectrons: 2.000000  magneticMoment: [ Abs: 0.00000  Tot: +0.00000 ]
	SubspaceRotationAdjust: set factor to 0.808
ElecMinimize: Iter:   7  F: -1.165119613431849  |grad|_K:  1.604e-09  alpha:  1.297e+00  linmin:  5.099e-07  t[s]:    772.99
ElecMinimize: Converged (|Delta F|<1.000000e-07 for 2 iters).
Setting wave functions to eigenvectors of Hamiltonian
Converging empty states (this may take a while): |deigs|: 4.501e-02
Vacuum energy after initial minimize, F = -1.165119613431849


-------- Electronic minimization -----------
	Linear fluid (dielectric constant: 78.4, screening length: 8.12261 Bohr) occupying 0.934897 of unit cell:	Completed after 9 iterations at t[s]:   1072.13
	FillingsUpdate:  mu: -0.100000000  nElectrons: 2.000000  magneticMoment: [ Abs: 0.00000  Tot: +0.00000 ]
ElecMinimize: Iter:   0  F: -1.165686704199881  |grad|_K:  5.352e-07  alpha:  1.000e+00
	Linear fluid (dielectric constant: 78.4, screening length: 8.12261 Bohr) occupying 0.935418 of unit cell:	Completed after 5 iterations at t[s]:   1127.90
	Linear fluid (dielectric constant: 78.4, screening length: 8.12261 Bohr) occupying 0.935554 of unit cell:	Completed after 5 iterations at t[s]:   1148.42
	FillingsUpdate:  mu: -0.100000000  nElectrons: 2.000000  magneticMoment: [ Abs: 0.00000  Tot: -0.00000 ]
	SubspaceRotationAdjust: set factor to 0.35
ElecMinimize: Iter:   1  F: -1.165764306958541  |grad|_K:  1.104e-07  alpha:  1.256e+00  linmin:  1.395e-04  t[s]:   1182.72
	Linear fluid (dielectric constant: 78.4, screening length: 8.12261 Bohr) occupying 0.935528 of unit cell:	Completed after 3 iterations at t[s]:   1202.62
	Linear fluid (dielectric constant: 78.4, screening length: 8.12261 Bohr) occupying 0.935525 of unit cell:	Completed after 0 iterations at t[s]:   1221.77
	FillingsUpdate:  mu: -0.100000000  nElectrons: 2.000000  magneticMoment: [ Abs: 0.00000  Tot: +0.00000 ]
	SubspaceRotationAdjust: set factor to 0.581
ElecMinimize: Iter:   2  F: -1.165767866536613  |grad|_K:  2.395e-08  alpha:  1.385e+00  linmin:  1.187e-05  t[s]:   1256.02
	Linear fluid (dielectric constant: 78.4, screening length: 8.12261 Bohr) occupying 0.935524 of unit cell:	Completed after 0 iterations at t[s]:   1275.06
	Linear fluid (dielectric constant: 78.4, screening length: 8.12261 Bohr) occupying 0.935524 of unit cell:	Completed after 0 iterations at t[s]:   1294.22
	FillingsUpdate:  mu: -0.100000000  nElectrons: 2.000000  magneticMoment: [ Abs: 0.00000  Tot: -0.00000 ]
	SubspaceRotationAdjust: set factor to 0.639
ElecMinimize: Iter:   3  F: -1.165768030065637  |grad|_K:  6.383e-09  alpha:  1.311e+00  linmin:  4.480e-06  t[s]:   1328.42
	Linear fluid (dielectric constant: 78.4, screening length: 8.12261 Bohr) occupying 0.935524 of unit cell:	Completed after 0 iterations at t[s]:   1347.43
	Linear fluid (dielectric constant: 78.4, screening length: 8.12261 Bohr) occupying 0.935524 of unit cell:	Completed after 0 iterations at t[s]:   1366.55
	FillingsUpdate:  mu: -0.100000000  nElectrons: 2.000000  magneticMoment: [ Abs: 0.00000  Tot: +0.00000 ]
	SubspaceRotationAdjust: set factor to 0.699
ElecMinimize: Iter:   4  F: -1.165768041562310  |grad|_K:  1.480e-09  alpha:  1.298e+00  linmin:  4.962e-07  t[s]:   1400.85
	Linear fluid (dielectric constant: 78.4, screening length: 8.12261 Bohr) occupying 0.935524 of unit cell:	Completed after 0 iterations at t[s]:   1419.90
	Linear fluid (dielectric constant: 78.4, screening length: 8.12261 Bohr) occupying 0.935524 of unit cell:	Completed after 0 iterations at t[s]:   1438.98
	FillingsUpdate:  mu: -0.100000000  nElectrons: 2.000000  magneticMoment: [ Abs: 0.00000  Tot: -0.00000 ]
	SubspaceRotationAdjust: set factor to 0.751
ElecMinimize: Iter:   5  F: -1.165768042203666  |grad|_K:  3.946e-10  alpha:  1.346e+00  linmin: -7.160e-07  t[s]:   1472.83
ElecMinimize: Converged (|Delta F|<1.000000e-07 for 2 iters).
Setting wave functions to eigenvectors of Hamiltonian
Converging empty states (this may take a while): |deigs|: 2.915e-04
Single-point solvation energy estimate, DeltaF = -0.000648428771817

Computing DFT-D3 correction:
# coordination-number H 0.876 0.876
# diagonal-C6 H 3.18 3.18
EvdW_6 =   -0.000001
EvdW_8 =   -0.000000
Completed 1 of 7 configurations.

Computing DFT-D3 correction:
# coordination-number H 0.876 0.876
# diagonal-C6 H 3.18 3.18
EvdW_6 =   -0.000001
EvdW_8 =   -0.000000

-------- Electronic minimization -----------
	Linear fluid (dielectric constant: 78.4, screening length: 8.12261 Bohr) occupying 0.935524 of unit cell:	Completed after 6 iterations at t[s]:   1649.88
	FillingsUpdate:  mu: -0.100000000  nElectrons: 2.000000  magneticMoment: [ Abs: 0.00000  Tot: +0.00000 ]
ElecMinimize: Iter:   0  F: -1.165765522340762  |grad|_K:  9.566e-08  alpha:  1.000e+00
	Linear fluid (dielectric constant: 78.4, screening length: 8.12261 Bohr) occupying 0.935524 of unit cell:	Completed after 2 iterations at t[s]:   1704.21
	Linear fluid (dielectric constant: 78.4, screening length: 8.12261 Bohr) occupying 0.935524 of unit cell:	Completed after 2 iterations at t[s]:   1723.91
	FillingsUpdate:  mu: -0.100000000  nElectrons: 2.000000  magneticMoment: [ Abs: 0.00000  Tot: +0.00000 ]
	SubspaceRotationAdjust: set factor to 0.772
ElecMinimize: Iter:   1  F: -1.165768041174355  |grad|_K:  8.327e-09  alpha:  1.267e+00  linmin:  3.521e-04  t[s]:   1758.15
	Linear fluid (dielectric constant: 78.4, screening length: 8.12261 Bohr) occupying 0.935524 of unit cell:	Completed after 0 iterations at t[s]:   1777.12
	Linear fluid (dielectric constant: 78.4, screening length: 8.12261 Bohr) occupying 0.935524 of unit cell:	Completed after 0 iterations at t[s]:   1796.13
	FillingsUpdate:  mu: -0.100000000  nElectrons: 2.000000  magneticMoment: [ Abs: 0.00000  Tot: -0.00000 ]
	SubspaceRotationAdjust: set factor to 0.886
ElecMinimize: Iter:   2  F: -1.165768059069595  |grad|_K:  1.670e-09  alpha:  1.188e+00  linmin:  1.574e-06  t[s]:   1830.36
	Linear fluid (dielectric constant: 78.4, screening length: 8.12261 Bohr) occupying 0.935524 of unit cell:	Completed after 0 iterations at t[s]:   1849.33
	Linear fluid (dielectric constant: 78.4, screening length: 8.12261 Bohr) occupying 0.935524 of unit cell:	Completed after 0 iterations at t[s]:   1868.50
	FillingsUpdate:  mu: -0.100000000  nElectrons: 2.000000  magneticMoment: [ Abs: 0.00000  Tot: -0.00000 ]
	SubspaceRotationAdjust: set factor to 0.809
ElecMinimize: Iter:   3  F: -1.165768059902314  |grad|_K:  5.205e-10  alpha:  1.372e+00  linmin:  3.459e-07  t[s]:   1902.75
ElecMinimize: Converged (|Delta F|<1.000000e-07 for 2 iters).
Setting wave functions to eigenvectors of Hamiltonian
Converging empty states (this may take a while): |deigs|: 1.615e-06

Computing DFT-D3 correction:
# coordination-number H 0.876 0.876
# diagonal-C6 H 3.18 3.18
EvdW_6 =   -0.000001
EvdW_8 =   -0.000000
Completed 2 of 7 configurations.

Computing DFT-D3 correction:
# coordination-number H 0.876 0.876
# diagonal-C6 H 3.18 3.18
EvdW_6 =   -0.000001
EvdW_8 =   -0.000000

-------- Electronic minimization -----------
	Linear fluid (dielectric constant: 78.4, screening length: 8.12261 Bohr) occupying 0.935524 of unit cell:	Completed after 6 iterations at t[s]:   1990.23
	FillingsUpdate:  mu: -0.100000000  nElectrons: 2.000000  magneticMoment: [ Abs: 0.00000  Tot: -0.00000 ]
ElecMinimize: Iter:   0  F: -1.165762977536420  |grad|_K:  1.354e-07  alpha:  1.000e+00
	Linear fluid (dielectric constant: 78.4, screening length: 8.12261 Bohr) occupying 0.935524 of unit cell:	Completed after 2 iterations at t[s]:   2044.77
	Linear fluid (dielectric constant: 78.4, screening length: 8.12261 Bohr) occupying 0.935524 of unit cell:	Completed after 2 iterations at t[s]:   2064.55
	FillingsUpdate:  mu: -0.100000000  nElectrons: 2.000000  magneticMoment: [ Abs: 0.00000  Tot: +0.00000 ]
	SubspaceRotationAdjust: set factor to 0.824
ElecMinimize: Iter:   1  F: -1.165768022770601  |grad|_K:  1.181e-08  alpha:  1.266e+00  linmin:  1.131e-03  t[s]:   2098.73
	Linear fluid (dielectric constant: 78.4, screening length: 8.12261 Bohr) occupying 0.935524 of unit cell:	Completed after 0 iterations at t[s]:   2117.81
	Linear fluid (dielectric constant: 78.4, screening length: 8.12261 Bohr) occupying 0.935524 of unit cell:	Completed after 0 iterations at t[s]:   2136.91
	FillingsUpdate:  mu: -0.100000000  nElectrons: 2.000000  magneticMoment: [ Abs: 0.00000  Tot: +0.00000 ]
	SubspaceRotationAdjust: set factor to 0.874
ElecMinimize: Iter:   2  F: -1.165768058691258  |grad|_K:  2.359e-09  alpha:  1.185e+00  linmin:  1.821e-06  t[s]:   2171.07
	Linear fluid (dielectric constant: 78.4, screening length: 8.12261 Bohr) occupying 0.935524 of unit cell:	Completed after 0 iterations at t[s]:   2189.94
	Linear fluid (dielectric constant: 78.4, screening length: 8.12261 Bohr) occupying 0.935524 of unit cell:	Completed after 0 iterations at t[s]:   2209.02
	FillingsUpdate:  mu: -0.100000000  nElectrons: 2.000000  magneticMoment: [ Abs: 0.00000  Tot: +0.00000 ]
	SubspaceRotationAdjust: set factor to 0.87
ElecMinimize: Iter:   3  F: -1.165768060388354  |grad|_K:  7.697e-10  alpha:  1.402e+00  linmin:  1.466e-06  t[s]:   2243.23
ElecMinimize: Converged (|Delta F|<1.000000e-07 for 2 iters).
Setting wave functions to eigenvectors of Hamiltonian
Converging empty states (this may take a while): |deigs|: 2.834e-07

Computing DFT-D3 correction:
# coordination-number H 0.876 0.876
# diagonal-C6 H 3.18 3.18
EvdW_6 =   -0.000001
EvdW_8 =   -0.000000
Completed 3 of 7 configurations.

Computing DFT-D3 correction:
# coordination-number H 0.889 0.889
# diagonal-C6 H 3.17 3.17
EvdW_6 =   -0.000001
EvdW_8 =   -0.000000

-------- Electronic minimization -----------
	Linear fluid (dielectric constant: 78.4, screening length: 8.12261 Bohr) occupying 0.935573 of unit cell:	Completed after 6 iterations at t[s]:   2330.78
	FillingsUpdate:  mu: -0.100000000  nElectrons: 2.000000  magneticMoment: [ Abs: 0.00000  Tot: -0.00000 ]
ElecMinimize: Iter:   0  F: -1.165738957336921  |grad|_K:  1.846e-07  alpha:  1.000e+00
	Linear fluid (dielectric constant: 78.4, screening length: 8.12261 Bohr) occupying 0.935656 of unit cell:	Completed after 5 iterations at t[s]:   2386.33
	Linear fluid (dielectric constant: 78.4, screening length: 8.12261 Bohr) occupying 0.935673 of unit cell:	Completed after 2 iterations at t[s]:   2406.30
	FillingsUpdate:  mu: -0.100000000  nElectrons: 2.000000  magneticMoment: [ Abs: 0.00000  Tot: -0.00000 ]
	SubspaceRotationAdjust: set factor to 0.394
ElecMinimize: Iter:   1  F: -1.165747862351231  |grad|_K:  2.769e-08  alpha:  1.201e+00  linmin: -3.076e-05  t[s]:   2440.49
	Linear fluid (dielectric constant: 78.4, screening length: 8.12261 Bohr) occupying 0.935666 of unit cell:	Completed after 1 iterations at t[s]:   2459.95
	Linear fluid (dielectric constant: 78.4, screening length: 8.12261 Bohr) occupying 0.935666 of unit cell:	Completed after 0 iterations at t[s]:   2479.11
	FillingsUpdate:  mu: -0.100000000  nElectrons: 2.000000  magneticMoment: [ Abs: 0.00000  Tot: -0.00000 ]
	SubspaceRotationAdjust: set factor to 0.448
ElecMinimize: Iter:   2  F: -1.165748068606223  |grad|_K:  4.600e-09  alpha:  1.235e+00  linmin: -2.885e-04  t[s]:   2513.26
	Linear fluid (dielectric constant: 78.4, screening length: 8.12261 Bohr) occupying 0.935667 of unit cell:	Completed after 0 iterations at t[s]:   2531.60
	Linear fluid (dielectric constant: 78.4, screening length: 8.12261 Bohr) occupying 0.935667 of unit cell:	Completed after 0 iterations at t[s]:   2550.43
	FillingsUpdate:  mu: -0.100000000  nElectrons: 2.000000  magneticMoment: [ Abs: 0.00000  Tot: -0.00000 ]
	SubspaceRotationAdjust: set factor to 0.446
ElecMinimize: Iter:   3  F: -1.165748075441628  |grad|_K:  1.574e-09  alpha:  1.468e+00  linmin: -1.126e-07  t[s]:   2584.59
	Linear fluid (dielectric constant: 78.4, screening length: 8.12261 Bohr) occupying 0.935669 of unit cell:	Completed after 0 iterations at t[s]:   2603.60
	Linear fluid (dielectric constant: 78.4, screening length: 8.12261 Bohr) occupying 0.935669 of unit cell:	Completed after 0 iterations at t[s]:   2622.76
	FillingsUpdate:  mu: -0.100000000  nElectrons: 2.000000  magneticMoment: [ Abs: 0.00000  Tot: -0.00000 ]
	SubspaceRotationAdjust: set factor to 0.589
ElecMinimize: Iter:   4  F: -1.165748076246488  |grad|_K:  6.259e-10  alpha:  1.493e+00  linmin: -3.764e-07  t[s]:   2656.93
ElecMinimize: Converged (|Delta F|<1.000000e-07 for 2 iters).
Setting wave functions to eigenvectors of Hamiltonian
Converging empty states (this may take a while): |deigs|: 3.090e-07

Computing DFT-D3 correction:
# coordination-number H 0.889 0.889
# diagonal-C6 H 3.17 3.17
EvdW_6 =   -0.000001
EvdW_8 =   -0.000000
Completed 4 of 7 configurations.

Computing DFT-D3 correction:
# coordination-number H 0.876 0.876
# diagonal-C6 H 3.18 3.18
EvdW_6 =   -0.000001
EvdW_8 =   -0.000000

-------- Electronic minimization -----------
	Linear fluid (dielectric constant: 78.4, screening length: 8.12261 Bohr) occupying 0.935620 of unit cell:	Completed after 6 iterations at t[s]:   2744.20
	FillingsUpdate:  mu: -0.100000000  nElectrons: 2.000000  magneticMoment: [ Abs: 0.00000  Tot: +0.00000 ]
ElecMinimize: Iter:   0  F: -1.165758867752143  |grad|_K:  1.834e-07  alpha:  1.000e+00
	Linear fluid (dielectric constant: 78.4, screening length: 8.12261 Bohr) occupying 0.935550 of unit cell:	Completed after 5 iterations at t[s]:   2799.17
	Linear fluid (dielectric constant: 78.4, screening length: 8.12261 Bohr) occupying 0.935533 of unit cell:	Completed after 2 iterations at t[s]:   2819.13
	FillingsUpdate:  mu: -0.100000000  nElectrons: 2.000000  magneticMoment: [ Abs: 0.00000  Tot: +0.00000 ]
	SubspaceRotationAdjust: set factor to 0.412
ElecMinimize: Iter:   1  F: -1.165767951916993  |grad|_K:  1.950e-08  alpha:  1.242e+00  linmin: -8.163e-05  t[s]:   2853.35
	Linear fluid (dielectric constant: 78.4, screening length: 8.12261 Bohr) occupying 0.935525 of unit cell:	Completed after 0 iterations at t[s]:   2872.63
	Linear fluid (dielectric constant: 78.4, screening length: 8.12261 Bohr) occupying 0.935524 of unit cell:	Completed after 0 iterations at t[s]:   2891.86
	FillingsUpdate:  mu: -0.100000000  nElectrons: 2.000000  magneticMoment: [ Abs: 0.00000  Tot: +0.00000 ]
	SubspaceRotationAdjust: set factor to 0.54
ElecMinimize: Iter:   2  F: -1.165768056833838  |grad|_K:  4.849e-09  alpha:  1.266e+00  linmin: -4.554e-04  t[s]:   2926.09
	Linear fluid (dielectric constant: 78.4, screening length: 8.12261 Bohr) occupying 0.935523 of unit cell:	Completed after 0 iterations at t[s]:   2945.07
	Linear fluid (dielectric constant: 78.4, screening length: 8.12261 Bohr) occupying 0.935523 of unit cell:	Completed after 0 iterations at t[s]:   2964.17
	FillingsUpdate:  mu: -0.100000000  nElectrons: 2.000000  magneticMoment: [ Abs: 0.00000  Tot: -0.00000 ]
	SubspaceRotationAdjust: set factor to 0.598
ElecMinimize: Iter:   3  F: -1.165768064325885  |grad|_K:  1.430e-09  alpha:  1.446e+00  linmin: -2.300e-07  t[s]:   2998.39
	Linear fluid (dielectric constant: 78.4, screening length: 8.12261 Bohr) occupying 0.935523 of unit cell:	Completed after 0 iterations at t[s]:   3017.26
	Linear fluid (dielectric constant: 78.4, screening length: 8.12261 Bohr) occupying 0.935523 of unit cell:	Completed after 0 iterations at t[s]:   3036.44
	FillingsUpdate:  mu: -0.100000000  nElectrons: 2.000000  magneticMoment: [ Abs: 0.00000  Tot: +0.00000 ]
	SubspaceRotationAdjust: set factor to 0.613
ElecMinimize: Iter:   4  F: -1.165768064933026  |grad|_K:  4.099e-10  alpha:  1.364e+00  linmin: -2.686e-07  t[s]:   3070.58
ElecMinimize: Converged (|Delta F|<1.000000e-07 for 2 iters).
Setting wave functions to eigenvectors of Hamiltonian
Converging empty states (this may take a while): |deigs|: 2.594e-07

Computing DFT-D3 correction:
# coordination-number H 0.876 0.876
# diagonal-C6 H 3.18 3.18
EvdW_6 =   -0.000001
EvdW_8 =   -0.000000
Completed 5 of 7 configurations.

Computing DFT-D3 correction:
# coordination-number H 0.876 0.876
# diagonal-C6 H 3.18 3.18
EvdW_6 =   -0.000001
EvdW_8 =   -0.000000

-------- Electronic minimization -----------
	Linear fluid (dielectric constant: 78.4, screening length: 8.12261 Bohr) occupying 0.935523 of unit cell:	Completed after 6 iterations at t[s]:   3167.37
	FillingsUpdate:  mu: -0.100000000  nElectrons: 2.000000  magneticMoment: [ Abs: 0.00000  Tot: -0.00000 ]
ElecMinimize: Iter:   0  F: -1.165762959908944  |grad|_K:  1.357e-07  alpha:  1.000e+00
	Linear fluid (dielectric constant: 78.4, screening length: 8.12261 Bohr) occupying 0.935524 of unit cell:	Completed after 2 iterations at t[s]:   3242.37
	Linear fluid (dielectric constant: 78.4, screening length: 8.12261 Bohr) occupying 0.935524 of unit cell:	Completed after 2 iterations at t[s]:   3270.14
	FillingsUpdate:  mu: -0.100000000  nElectrons: 2.000000  magneticMoment: [ Abs: 0.00000  Tot: -0.00000 ]
	SubspaceRotationAdjust: set factor to 0.633
ElecMinimize: Iter:   1  F: -1.165768023410714  |grad|_K:  1.186e-08  alpha:  1.265e+00  linmin:  1.766e-03  t[s]:   3316.56
	Linear fluid (dielectric constant: 78.4, screening length: 8.12261 Bohr) occupying 0.935524 of unit cell:	Completed after 0 iterations at t[s]:   3344.15
	Linear fluid (dielectric constant: 78.4, screening length: 8.12261 Bohr) occupying 0.935524 of unit cell:	Completed after 0 iterations at t[s]:   3371.09
	FillingsUpdate:  mu: -0.100000000  nElectrons: 2.000000  magneticMoment: [ Abs: 0.00000  Tot: -0.00000 ]
	SubspaceRotationAdjust: set factor to 0.842
ElecMinimize: Iter:   2  F: -1.165768060127596  |grad|_K:  2.527e-09  alpha:  1.202e+00  linmin:  1.280e-06  t[s]:   3417.44
	Linear fluid (dielectric constant: 78.4, screening length: 8.12261 Bohr) occupying 0.935524 of unit cell:	Completed after 0 iterations at t[s]:   3444.60
	Linear fluid (dielectric constant: 78.4, screening length: 8.12261 Bohr) occupying 0.935524 of unit cell:	Completed after 0 iterations at t[s]:   3471.59
	FillingsUpdate:  mu: -0.100000000  nElectrons: 2.000000  magneticMoment: [ Abs: 0.00000  Tot: +0.00000 ]
	SubspaceRotationAdjust: set factor to 0.76
ElecMinimize: Iter:   3  F: -1.165768062025421  |grad|_K:  7.056e-10  alpha:  1.366e+00  linmin:  1.498e-06  t[s]:   3517.30
ElecMinimize: Converged (|Delta F|<1.000000e-07 for 2 iters).
Setting wave functions to eigenvectors of Hamiltonian
Converging empty states (this may take a while): |deigs|: 1.370e-07

Computing DFT-D3 correction:
# coordination-number H 0.876 0.876
# diagonal-C6 H 3.18 3.18
EvdW_6 =   -0.000001
EvdW_8 =   -0.000000
Completed 6 of 7 configurations.

Computing DFT-D3 correction:
# coordination-number H 0.862 0.862
# diagonal-C6 H 3.20 3.20
EvdW_6 =   -0.000001
EvdW_8 =   -0.000000

-------- Electronic minimization -----------
	Linear fluid (dielectric constant: 78.4, screening length: 8.12261 Bohr) occupying 0.935475 of unit cell:	Completed after 6 iterations at t[s]:   3617.50
	FillingsUpdate:  mu: -0.100000000  nElectrons: 2.000000  magneticMoment: [ Abs: 0.00000  Tot: +0.00000 ]
ElecMinimize: Iter:   0  F: -1.165742370101701  |grad|_K:  1.827e-07  alpha:  1.000e+00
	Linear fluid (dielectric constant: 78.4, screening length: 8.12261 Bohr) occupying 0.935398 of unit cell:	Completed after 5 iterations at t[s]:   3673.85
	Linear fluid (dielectric constant: 78.4, screening length: 8.12261 Bohr) occupying 0.935381 of unit cell:	Completed after 2 iterations at t[s]:   3693.65
	FillingsUpdate:  mu: -0.100000000  nElectrons: 2.000000  magneticMoment: [ Abs: 0.00000  Tot: -0.00000 ]
	SubspaceRotationAdjust: set factor to 0.352
ElecMinimize: Iter:   1  F: -1.165751211406269  |grad|_K:  2.351e-08  alpha:  1.217e+00  linmin: -1.199e-04  t[s]:   3728.29
	Linear fluid (dielectric constant: 78.4, screening length: 8.12261 Bohr) occupying 0.935381 of unit cell:	Completed after 0 iterations at t[s]:   3747.82
	Linear fluid (dielectric constant: 78.4, screening length: 8.12261 Bohr) occupying 0.935381 of unit cell:	Completed after 0 iterations at t[s]:   3766.97
	FillingsUpdate:  mu: -0.100000000  nElectrons: 2.000000  magneticMoment: [ Abs: 0.00000  Tot: +0.00000 ]
	SubspaceRotationAdjust: set factor to 0.655
ElecMinimize: Iter:   2  F: -1.165751372189920  |grad|_K:  4.774e-09  alpha:  1.335e+00  linmin: -3.233e-06  t[s]:   3801.55
	Linear fluid (dielectric constant: 78.4, screening length: 8.12261 Bohr) occupying 0.935381 of unit cell:	Completed after 0 iterations at t[s]:   3820.67
	Linear fluid (dielectric constant: 78.4, screening length: 8.12261 Bohr) occupying 0.935381 of unit cell:	Completed after 0 iterations at t[s]:   3839.92
	FillingsUpdate:  mu: -0.100000000  nElectrons: 2.000000  magneticMoment: [ Abs: 0.00000  Tot: -0.00000 ]
	SubspaceRotationAdjust: set factor to 0.709
ElecMinimize: Iter:   3  F: -1.165751378722364  |grad|_K:  1.303e-09  alpha:  1.317e+00  linmin: -3.866e-09  t[s]:   3874.22
	Linear fluid (dielectric constant: 78.4, screening length: 8.12261 Bohr) occupying 0.935381 of unit cell:	Completed after 0 iterations at t[s]:   3893.27
	Linear fluid (dielectric constant: 78.4, screening length: 8.12261 Bohr) occupying 0.935381 of unit cell:	Completed after 0 iterations at t[s]:   3912.44
	FillingsUpdate:  mu: -0.100000000  nElectrons: 2.000000  magneticMoment: [ Abs: 0.00000  Tot: -0.00000 ]
	SubspaceRotationAdjust: set factor to 0.799
ElecMinimize: Iter:   4  F: -1.165751379218995  |grad|_K:  3.285e-10  alpha:  1.345e+00  linmin:  2.982e-07  t[s]:   3946.71
ElecMinimize: Converged (|Delta F|<1.000000e-07 for 2 iters).
Setting wave functions to eigenvectors of Hamiltonian
Converging empty states (this may take a while): |deigs|: 2.681e-07

Computing DFT-D3 correction:
# coordination-number H 0.862 0.862
# diagonal-C6 H 3.20 3.20
EvdW_6 =   -0.000001
EvdW_8 =   -0.000000
Completed 7 of 7 configurations.

Relative symmetry error in force matrix = 0.0129013
2 imaginary modes, 1 modes within cutoff, 3 real modes.

Imaginary mode 1:
Frequency: 0.000872i Eh [ 191i cm^-1 ]
Degeneracy: 1 of 1
IR intensity: 0.0000 e^2/amu [ 0.0 km/mol ]
Displacements:
disp H   0.001031062999436  -0.004052955743422  -0.010676687257664
disp H  -0.007723987347117  -0.015375708600721  -0.010803005963589

Imaginary mode 2:
Frequency: 0.000311i Eh [ 68i cm^-1 ]
Degeneracy: 1 of 1
IR intensity: 0.0000 e^2/amu [ 0.0 km/mol ]
Displacements:
disp H  -0.014240587601133  -0.016571060805425  -0.002900237057443
disp H   0.005099857833203   0.004902537811373  -0.002899884822562

Zero mode 1:
Frequency: 0.000132 Eh [ 29 cm^-1 ]
Degeneracy: 1 of 1
IR intensity: 0.0000 e^2/amu [ 0.0 km/mol ]
Displacements:
disp H   0.013201306798385  -0.010915429186047  -0.001394459162318
disp H  -0.010989792260406   0.011232458886041  -0.001396154331506

Real mode 1:
Frequency: 0.001155 Eh [ 254 cm^-1 ]
Degeneracy: 1 of 1
IR intensity: 0.0000 e^2/amu [ 0.0 km/mol ]
Displacements:
disp H  -0.011904303199118   0.002693293135166   0.005388411870948
disp H  -0.018314382436612   0.000048665242488   0.005553225002392

Real mode 2:
Frequency: 0.001424 Eh [ 313 cm^-1 ]
Degeneracy: 1 of 1
IR intensity: 0.0000 e^2/amu [ 0.0 km/mol ]
Displacements:
disp H   0.004940930392546  -0.011261905992119   0.010701745292922
disp H   0.001547602111805  -0.012555501578482   0.010883572993706

Real mode 3:
Frequency: 0.020004 Eh [ 4390 cm^-1 ]
Degeneracy: 1 of 1
IR intensity: 0.0000 e^2/amu [ 0.0 km/mol ]
Displacements:
disp H   0.000037016306998   0.000032711601160  -0.016623737497287
disp H   0.000052769421209   0.000010608535076   0.016367789696217

Vibrational free energy components at T = 298 K:
	ZPE:          0.011291
	Evib:         0.012177
	TSvib:        0.001450
	Avib:         0.010727


Dumping 'jdft.n_up' ... done
Dumping 'jdft.n_dn' ... done
Dumping 'jdft.tau_up' ... done
Dumping 'jdft.tau_dn' ... done
Dumping 'jdft.eigenvals' ... done
Dumping 'jdft.eigStats' ... 
	eMin: -0.365829 at state 343 ( [ +0.000000 +0.000000 +0.000000 ] spin -1 )
	HOMO: -0.365828 at state 172 ( [ +0.428571 +0.428571 -0.428571 ] spin 1 )
	mu  : -0.100000
	LUMO: -0.002597 at state 343 ( [ +0.000000 +0.000000 +0.000000 ] spin -1 )
	eMax: +0.108156 at state 515 ( [ +0.428571 +0.428571 -0.428571 ] spin -1 )
	HOMO-LUMO gap: +0.363232
	Optical gap  : +0.363232 at state 343 ( [ +0.000000 +0.000000 +0.000000 ] spin -1 )
Dumping 'jdft.kPts' ... done
Dumping 'jdft.dosUp' ... done.
Dumping 'jdft.dosDn' ... done.
End date and time: Thu Nov 10 14:48:32 2022  (Duration: 0-1:09:21.72)
Done!

PROFILER:             augmentDensityGrid     0.607916 +/-     0.330106 s,   79 calls,     48.025351 s total
PROFILER:         augmentDensityGridGrad     0.049079 +/-     0.015719 s,   52 calls,      2.552090 s total
PROFILER:        augmentDensitySpherical     0.000036 +/-     0.000011 s, 3002 calls,      0.108181 s total
PROFILER:    augmentDensitySphericalGrad     0.000027 +/-     0.000010 s, 2887 calls,      0.077030 s total
PROFILER:                 augmentOverlap     0.010143 +/-     0.001684 s, 7484 calls,     75.913540 s total
PROFILER:        ColumnBundle::randomize     0.017880 +/-     0.000480 s,   38 calls,      0.679429 s total
PROFILER:                     diagouterI     0.419575 +/-     0.040303 s, 3116 calls,   1307.394318 s total
PROFILER:              EdensityAndVscloc     1.842918 +/-     1.118799 s,   80 calls,    147.433462 s total
PROFILER:                     EnlAndGrad     0.000033 +/-     0.000048 s, 4027 calls,      0.133091 s total
PROFILER:            ExCorrCommunication     0.021900 +/-     0.037902 s,  480 calls,     10.512091 s total
PROFILER:               ExCorrFunctional     0.012723 +/-     0.000598 s,   80 calls,      1.017877 s total
PROFILER:                    ExCorrTotal     0.237651 +/-     0.088774 s,   80 calls,     19.012102 s total
PROFILER:                   Idag_DiagV_I     0.831161 +/-     0.083790 s, 2621 calls,   2178.473837 s total
PROFILER:                    initWeights     2.253604 +/-     0.000000 s,    1 calls,      2.253604 s total
PROFILER:                    inv(matrix)     0.000042 +/-     0.001451 s, 2774 calls,      0.115154 s total
PROFILER:            matrix::diagonalize     0.000130 +/-     0.002423 s, 5320 calls,      0.690735 s total
PROFILER:                    matrix::set     0.000000 +/-     0.000001 s, 18692 calls,      0.005933 s total
PROFILER:            orthoMatrix(matrix)     0.000112 +/-     0.005256 s, 3457 calls,      0.386445 s total
PROFILER:     RadialFunctionR::transform     0.061657 +/-     0.158244 s,   14 calls,      0.863194 s total
PROFILER:                    reduceKmesh     0.000001 +/-     0.000000 s,    1 calls,      0.000001 s total
PROFILER:   VanDerWaalsD3::energyAndGrad     0.014035 +/-     0.022139 s,   15 calls,      0.210528 s total
PROFILER:               WavefunctionDrag     1.470564 +/-     0.138074 s,    7 calls,     10.293945 s total
PROFILER:                            Y*M     0.002497 +/-     0.001275 s, 25179 calls,     62.882488 s total
PROFILER:                          Y1^Y2     0.003123 +/-     0.002469 s, 17816 calls,     55.634008 s total

MEMUSAGE:                   ColumnBundle     0.727371 GB
MEMUSAGE:        complexScalarFieldTilde     0.022888 GB
MEMUSAGE:                    IndexArrays     0.294698 GB
MEMUSAGE:                         matrix     0.000772 GB
MEMUSAGE:                           misc     0.015376 GB
MEMUSAGE:                    ScalarField     0.118256 GB
MEMUSAGE:               ScalarFieldTilde     0.082111 GB
MEMUSAGE:                          Total     1.190375 GB
