
*************** JDFTx 1.7.0 (git hash 5f12716a) ***************

Start date and time: Wed Nov  9 13:08:48 2022
Executable /home/nisi6161/jdftx_alpine/build/jdftx with command-line: -i in
Running on hosts (process indices):  c3cpu-c11-u5-3.rc.int.colorado.edu (0-17)
Divided in process groups (process indices):  0 (0)  1 (1)  2 (2)  3 (3)  4 (4)  5 (5)  6 (6)  7 (7)  8 (8)  9 (9)  10 (10)  11 (11)  12 (12)  13 (13)  14 (14)  15 (15)  16 (16)  17 (17)
Resource initialization completed at t[s]:      0.00
Run totals: 18 processes, 48 threads, 0 GPUs


Input parsed successfully to the following command list (including defaults):

basis kpoint-dependent
converge-empty-states yes
coords-type Cartesian
core-overlap-check none
coulomb-interaction Periodic
davidson-band-ratio 1.1
density-of-states Etol 1.000000e-06 Esigma 1.000000e-03 \
		Complete \
	Total \
	OrthoOrbital C 1   s \
	OrthoOrbital C 1   p \
	OrthoOrbital C 1   px \
	OrthoOrbital C 1   py \
	OrthoOrbital C 1   pz \
	OrthoOrbital C 2   s \
	OrthoOrbital C 2   p \
	OrthoOrbital C 2   px \
	OrthoOrbital C 2   py \
	OrthoOrbital C 2   pz \
	OrthoOrbital C 3   s \
	OrthoOrbital C 3   p \
	OrthoOrbital C 3   px \
	OrthoOrbital C 3   py \
	OrthoOrbital C 3   pz \
	OrthoOrbital C 4   s \
	OrthoOrbital C 4   p \
	OrthoOrbital C 4   px \
	OrthoOrbital C 4   py \
	OrthoOrbital C 4   pz \
	OrthoOrbital C 5   s \
	OrthoOrbital C 5   p \
	OrthoOrbital C 5   px \
	OrthoOrbital C 5   py \
	OrthoOrbital C 5   pz \
	OrthoOrbital C 6   s \
	OrthoOrbital C 6   p \
	OrthoOrbital C 6   px \
	OrthoOrbital C 6   py \
	OrthoOrbital C 6   pz \
	OrthoOrbital C 7   s \
	OrthoOrbital C 7   p \
	OrthoOrbital C 7   px \
	OrthoOrbital C 7   py \
	OrthoOrbital C 7   pz \
	OrthoOrbital C 8   s \
	OrthoOrbital C 8   p \
	OrthoOrbital C 8   px \
	OrthoOrbital C 8   py \
	OrthoOrbital C 8   pz \
	OrthoOrbital C 9   s \
	OrthoOrbital C 9   p \
	OrthoOrbital C 9   px \
	OrthoOrbital C 9   py \
	OrthoOrbital C 9   pz \
	OrthoOrbital C 10   s \
	OrthoOrbital C 10   p \
	OrthoOrbital C 10   px \
	OrthoOrbital C 10   py \
	OrthoOrbital C 10   pz \
	OrthoOrbital C 11   s \
	OrthoOrbital C 11   p \
	OrthoOrbital C 11   px \
	OrthoOrbital C 11   py \
	OrthoOrbital C 11   pz \
	OrthoOrbital C 12   s \
	OrthoOrbital C 12   p \
	OrthoOrbital C 12   px \
	OrthoOrbital C 12   py \
	OrthoOrbital C 12   pz \
	OrthoOrbital C 13   s \
	OrthoOrbital C 13   p \
	OrthoOrbital C 13   px \
	OrthoOrbital C 13   py \
	OrthoOrbital C 13   pz \
	OrthoOrbital C 14   s \
	OrthoOrbital C 14   p \
	OrthoOrbital C 14   px \
	OrthoOrbital C 14   py \
	OrthoOrbital C 14   pz \
	OrthoOrbital C 15   s \
	OrthoOrbital C 15   p \
	OrthoOrbital C 15   px \
	OrthoOrbital C 15   py \
	OrthoOrbital C 15   pz \
	OrthoOrbital C 16   s \
	OrthoOrbital C 16   p \
	OrthoOrbital C 16   px \
	OrthoOrbital C 16   py \
	OrthoOrbital C 16   pz \
	OrthoOrbital C 17   s \
	OrthoOrbital C 17   p \
	OrthoOrbital C 17   px \
	OrthoOrbital C 17   py \
	OrthoOrbital C 17   pz \
	OrthoOrbital C 18   s \
	OrthoOrbital C 18   p \
	OrthoOrbital C 18   px \
	OrthoOrbital C 18   py \
	OrthoOrbital C 18   pz \
	OrthoOrbital C 19   s \
	OrthoOrbital C 19   p \
	OrthoOrbital C 19   px \
	OrthoOrbital C 19   py \
	OrthoOrbital C 19   pz \
	OrthoOrbital C 20   s \
	OrthoOrbital C 20   p \
	OrthoOrbital C 20   px \
	OrthoOrbital C 20   py \
	OrthoOrbital C 20   pz \
	OrthoOrbital C 21   s \
	OrthoOrbital C 21   p \
	OrthoOrbital C 21   px \
	OrthoOrbital C 21   py \
	OrthoOrbital C 21   pz \
	OrthoOrbital C 22   s \
	OrthoOrbital C 22   p \
	OrthoOrbital C 22   px \
	OrthoOrbital C 22   py \
	OrthoOrbital C 22   pz \
	OrthoOrbital C 23   s \
	OrthoOrbital C 23   p \
	OrthoOrbital C 23   px \
	OrthoOrbital C 23   py \
	OrthoOrbital C 23   pz \
	OrthoOrbital C 24   s \
	OrthoOrbital C 24   p \
	OrthoOrbital C 24   px \
	OrthoOrbital C 24   py \
	OrthoOrbital C 24   pz \
	OrthoOrbital C 25   s \
	OrthoOrbital C 25   p \
	OrthoOrbital C 25   px \
	OrthoOrbital C 25   py \
	OrthoOrbital C 25   pz \
	OrthoOrbital C 26   s \
	OrthoOrbital C 26   p \
	OrthoOrbital C 26   px \
	OrthoOrbital C 26   py \
	OrthoOrbital C 26   pz \
	OrthoOrbital C 27   s \
	OrthoOrbital C 27   p \
	OrthoOrbital C 27   px \
	OrthoOrbital C 27   py \
	OrthoOrbital C 27   pz \
	OrthoOrbital C 28   s \
	OrthoOrbital C 28   p \
	OrthoOrbital C 28   px \
	OrthoOrbital C 28   py \
	OrthoOrbital C 28   pz \
	OrthoOrbital C 29   s \
	OrthoOrbital C 29   p \
	OrthoOrbital C 29   px \
	OrthoOrbital C 29   py \
	OrthoOrbital C 29   pz \
	OrthoOrbital C 30   s \
	OrthoOrbital C 30   p \
	OrthoOrbital C 30   px \
	OrthoOrbital C 30   py \
	OrthoOrbital C 30   pz \
	OrthoOrbital C 31   s \
	OrthoOrbital C 31   p \
	OrthoOrbital C 31   px \
	OrthoOrbital C 31   py \
	OrthoOrbital C 31   pz \
	OrthoOrbital C 32   s \
	OrthoOrbital C 32   p \
	OrthoOrbital C 32   px \
	OrthoOrbital C 32   py \
	OrthoOrbital C 32   pz \
	OrthoOrbital C 33   s \
	OrthoOrbital C 33   p \
	OrthoOrbital C 33   px \
	OrthoOrbital C 33   py \
	OrthoOrbital C 33   pz \
	OrthoOrbital C 34   s \
	OrthoOrbital C 34   p \
	OrthoOrbital C 34   px \
	OrthoOrbital C 34   py \
	OrthoOrbital C 34   pz \
	OrthoOrbital C 35   s \
	OrthoOrbital C 35   p \
	OrthoOrbital C 35   px \
	OrthoOrbital C 35   py \
	OrthoOrbital C 35   pz \
	OrthoOrbital C 36   s \
	OrthoOrbital C 36   p \
	OrthoOrbital C 36   px \
	OrthoOrbital C 36   py \
	OrthoOrbital C 36   pz \
	OrthoOrbital C 37   s \
	OrthoOrbital C 37   p \
	OrthoOrbital C 37   px \
	OrthoOrbital C 37   py \
	OrthoOrbital C 37   pz \
	OrthoOrbital C 38   s \
	OrthoOrbital C 38   p \
	OrthoOrbital C 38   px \
	OrthoOrbital C 38   py \
	OrthoOrbital C 38   pz \
	OrthoOrbital C 39   s \
	OrthoOrbital C 39   p \
	OrthoOrbital C 39   px \
	OrthoOrbital C 39   py \
	OrthoOrbital C 39   pz \
	OrthoOrbital C 40   s \
	OrthoOrbital C 40   p \
	OrthoOrbital C 40   px \
	OrthoOrbital C 40   py \
	OrthoOrbital C 40   pz \
	OrthoOrbital C 41   s \
	OrthoOrbital C 41   p \
	OrthoOrbital C 41   px \
	OrthoOrbital C 41   py \
	OrthoOrbital C 41   pz \
	OrthoOrbital C 42   s \
	OrthoOrbital C 42   p \
	OrthoOrbital C 42   px \
	OrthoOrbital C 42   py \
	OrthoOrbital C 42   pz \
	OrthoOrbital C 43   s \
	OrthoOrbital C 43   p \
	OrthoOrbital C 43   px \
	OrthoOrbital C 43   py \
	OrthoOrbital C 43   pz \
	OrthoOrbital C 44   s \
	OrthoOrbital C 44   p \
	OrthoOrbital C 44   px \
	OrthoOrbital C 44   py \
	OrthoOrbital C 44   pz \
	OrthoOrbital C 45   s \
	OrthoOrbital C 45   p \
	OrthoOrbital C 45   px \
	OrthoOrbital C 45   py \
	OrthoOrbital C 45   pz \
	OrthoOrbital N 1   s \
	OrthoOrbital N 1   p \
	OrthoOrbital N 1   px \
	OrthoOrbital N 1   py \
	OrthoOrbital N 1   pz \
	OrthoOrbital N 2   s \
	OrthoOrbital N 2   p \
	OrthoOrbital N 2   px \
	OrthoOrbital N 2   py \
	OrthoOrbital N 2   pz \
	OrthoOrbital N 3   s \
	OrthoOrbital N 3   p \
	OrthoOrbital N 3   px \
	OrthoOrbital N 3   py \
	OrthoOrbital N 3   pz \
	OrthoOrbital N 4   s \
	OrthoOrbital N 4   p \
	OrthoOrbital N 4   px \
	OrthoOrbital N 4   py \
	OrthoOrbital N 4   pz \
	OrthoOrbital Ti 1   s \
	OrthoOrbital Ti 1   p \
	OrthoOrbital Ti 1   px \
	OrthoOrbital Ti 1   py \
	OrthoOrbital Ti 1   pz \
	OrthoOrbital Ti 1   d \
	OrthoOrbital Ti 1   dxy \
	OrthoOrbital Ti 1   dyz \
	OrthoOrbital Ti 1   dz2 \
	OrthoOrbital Ti 1   dxz \
	OrthoOrbital Ti 1   dx2-y2 \
	OrthoOrbital O 1   s \
	OrthoOrbital O 1   p \
	OrthoOrbital O 1   px \
	OrthoOrbital O 1   py \
	OrthoOrbital O 1   pz \
	OrthoOrbital O 2   s \
	OrthoOrbital O 2   p \
	OrthoOrbital O 2   px \
	OrthoOrbital O 2   py \
	OrthoOrbital O 2   pz \
	OrthoOrbital H 1   s \
	OrthoOrbital H 2   s
dump End ElecDensity KEdensity BandEigs EigStats RhoAtom DOS Kpoints
dump Ionic State IonicPositions Lattice EigStats Ecomponents
dump 
dump 
dump 
dump 
dump 
dump 
dump 
dump 
dump-name jdft.$VAR
elec-cutoff 20
elec-eigen-algo Davidson
elec-ex-corr gga-PBE
elec-initial-magnetization 0.000000 no
elec-n-bands 136
elec-smearing Fermi 0.001
electronic-minimize  \
	dirUpdateScheme      FletcherReeves \
	linminMethod         DirUpdateRecommended \
	nIterations          100 \
	history              15 \
	knormThreshold       0 \
	energyDiffThreshold  1e-07 \
	nEnergyDiff          2 \
	alphaTstart          1 \
	alphaTmin            1e-10 \
	updateTestStepSize   yes \
	alphaTreduceFactor   0.1 \
	alphaTincreaseFactor 3 \
	nAlphaAdjustMax      3 \
	wolfeEnergy          0.0001 \
	wolfeGradient        0.9 \
	fdTest               no
exchange-regularization WignerSeitzTruncated
fluid LinearPCM 298.000000 1.013250
fluid-anion F- 0.5 MeanFieldLJ \
	epsBulk 1 \
	pMol 0 \
	epsInf 1 \
	Pvap 0 \
	sigmaBulk 0 \
	Rvdw 2.24877 \
	Res 0 \
	tauNuc 343133
fluid-cation Na+ 0.5 MeanFieldLJ \
	epsBulk 1 \
	pMol 0 \
	epsInf 1 \
	Pvap 0 \
	sigmaBulk 0 \
	Rvdw 2.19208 \
	Res 0 \
	tauNuc 343133
fluid-ex-corr lda-TF lda-PZ
fluid-gummel-loop 10 1.000000e-05
fluid-minimize  \
	dirUpdateScheme      PolakRibiere \
	linminMethod         DirUpdateRecommended \
	nIterations          400 \
	history              15 \
	knormThreshold       1e-11 \
	energyDiffThreshold  0 \
	nEnergyDiff          2 \
	alphaTstart          1 \
	alphaTmin            1e-10 \
	updateTestStepSize   yes \
	alphaTreduceFactor   0.1 \
	alphaTincreaseFactor 3 \
	nAlphaAdjustMax      6 \
	wolfeEnergy          0.0001 \
	wolfeGradient        0.9 \
	fdTest               no
fluid-solvent H2O 55.338 ScalarEOS \
	epsBulk 78.4 \
	pMol 0.92466 \
	epsInf 1.77 \
	Pvap 1.06736e-10 \
	sigmaBulk 4.62e-05 \
	Rvdw 2.61727 \
	Res 1.42 \
	tauNuc 343133 \
	poleEl 15 7 1
forces-output-coords Positions
ion C  23.357384000000003   0.099253000000000   0.060040000000000 0
ion C  20.964590000000001   4.045990000000001   0.009127000000000 0
ion C  18.623719999999999   8.052200000000001  43.109155000000008 0
ion C  16.320020000000000  12.074299999999999  43.102104000000004 0
ion C  -9.444118000000000  16.063704000000005  43.248008000000006 0
ion C   4.610311000000001   0.187088000000000   0.118955000000000 0
ion C   2.195494000000000   4.184922000000001   0.245220000000000 0
ion C  -0.204908000000001   8.029064999999999   0.143741000000000 0
ion C  -2.506513999999999  12.040433000000000  43.222919000000005 0
ion C  -4.795536000000002  16.068350000000002  43.237972000000006 0
ion C   9.298154000000000   0.093087000000000   0.033870000000000 0
ion C   7.016069000000001   4.197082000000001   0.232330000000000 0
ion C  -0.106800000000002  15.986580000000002   0.069210000000000 0
ion C   2.270865999999998  19.940671000000002   0.034086000000000 0
ion C  11.687074000000003   4.040603000000001  43.240049000000006 0
ion C   9.414985000000000   8.038706000000001   0.144476000000000 0
ion C   4.598117999999999  15.844352000000004   0.240073000000000 0
ion C   6.919953000000000  19.942784000000003   0.049572000000000 0
ion C  16.326462000000003   4.024174000000001  43.169541000000009 0
ion C  14.022700999999998   8.049047000000002  43.099249000000007 0
ion C  11.709816999999997  12.050770000000004  43.228802000000009 0
ion C   9.301586000000000  15.988317000000002   0.090665000000000 0
ion C  -0.098114000000000   2.758729000000001   0.085474000000000 0
ion C  -2.502096000000000   6.701767000000001  43.227850000000004 0
ion C  -4.815039000000001  10.704707000000003  43.109241000000004 0
ion C  -7.118777000000001  14.729061000000003  43.187146000000006 0
ion C  -9.447611000000000  18.749246000000003   0.064971000000000 0
ion C   4.607541000000001   2.908023000000000   0.247513000000000 0
ion C  -0.207853000000000  10.718419000000003   0.144952000000000 0
ion C  -2.478863000000001  14.714368000000004   0.001990000000000 0
ion C  -4.796780000000000  18.754612000000005   0.050956000000000 0
ion C   9.313860999999999   2.771063000000000   0.057790000000000 0
ion C   2.190401999999999  14.565349000000001   0.239078000000000 0
ion C  -0.091807999999999  18.663976999999999   0.032832000000000 0
ion C  14.003351000000000   2.684745000000000  43.216690000000007 0
ion C  11.712909000000000   6.714357000000001  43.209899000000007 0
ion C   9.413589000000002  10.725068000000004   0.156804000000000 0
ion C   7.005868999999999  14.560727000000004   0.257159000000000 0
ion C   4.596393000000001  18.561837000000004   0.101955000000000 0
ion C  18.650669000000004   2.687116000000001  43.233301000000004 0
ion C  16.324384999999999   6.696949000000001  43.092544000000004 0
ion C  14.020942000000000  10.719248000000002  43.107208000000007 0
ion C  11.677414000000002  14.723442000000000   0.017735000000000 0
ion C   9.282817999999999  18.666386000000003   0.056363000000000 0
ion C   4.594827000000000   9.114965000000002   5.469415000000001 1
ion N   2.055552000000000  11.984183000000003   0.427805000000000 0
ion N   7.145295999999999  11.977058000000001   0.452158000000000 0
ion N   2.061976000000001   6.764964000000001   0.414309000000000 0
ion N   7.147131000000002   6.781736000000001   0.429751000000000 0
ion Ti   4.576491000000001   9.371200000000002   1.710917000000000 0
ion O   4.601825000000000   8.975713000000002   7.713076000000002 1
ion O   6.943858000000001   2.555231000000001   6.345355000000001 1
ion H   8.540815000000002   3.473697000000000   6.587244000000002 1
ion H   6.340260000000000   3.130070000000000   4.685567000000001 1
ion-species /projects/musgravc/apps/jdftx-1.6.0/build/pseudopotentials/GBRV_v1.5/$ID_pbe_v1.uspp
ion-species /projects/musgravc/apps/jdftx-1.6.0/build/pseudopotentials/GBRV_v1.5/$ID_pbe_v1.2.uspp
ion-species /projects/musgravc/apps/jdftx-1.6.0/build/pseudopotentials/GBRV_v1.5/$ID_pbe_v1.4.uspp
ion-species /projects/musgravc/apps/jdftx-1.6.0/build/pseudopotentials/GBRV_v1.5/$ID_pbe_v1.5.uspp
ion-width Ecut
ionic-minimize  \
	dirUpdateScheme      L-BFGS \
	linminMethod         DirUpdateRecommended \
	nIterations          100 \
	history              15 \
	knormThreshold       0.0001 \
	energyDiffThreshold  0.0001 \
	nEnergyDiff          2 \
	alphaTstart          1 \
	alphaTmin            1e-10 \
	updateTestStepSize   yes \
	alphaTreduceFactor   0.1 \
	alphaTincreaseFactor 3 \
	nAlphaAdjustMax      3 \
	wolfeEnergy          0.0001 \
	wolfeGradient        0.9 \
	fdTest               no
kpoint   0.000000000000   0.000000000000   0.000000000000  1.00000000000000
kpoint-folding 3 3 1 
latt-move-scale 0 0 0
latt-scale 1 1 1 
lattice  \
	  23.436261999999999  -11.733459000000000    0.000000000000000  \
	   0.017994000000000   19.941849000000001    0.000000000000000  \
	   0.000000000000000    0.000000000000000   43.256312999999999 
lattice-minimize  \
	dirUpdateScheme      L-BFGS \
	linminMethod         DirUpdateRecommended \
	nIterations          0 \
	history              15 \
	knormThreshold       0 \
	energyDiffThreshold  1e-06 \
	nEnergyDiff          2 \
	alphaTstart          1 \
	alphaTmin            1e-10 \
	updateTestStepSize   yes \
	alphaTreduceFactor   0.1 \
	alphaTincreaseFactor 3 \
	nAlphaAdjustMax      3 \
	wolfeEnergy          0.0001 \
	wolfeGradient        0.9 \
	fdTest               no
lcao-params 30 1e-06 0.001
pcm-variant CANDLE
spintype z-spin
subspace-rotation-factor 1 yes
symmetries none
symmetry-threshold 0.0001
target-mu -0.1272 no

van-der-waals D3
vibrations \
	dr 0.01\
	centralDiff no\
	useConstraints yes\
	translationSym yes\
	rotationSym no\
	omegaMin 0.0002\
	T 298\
	omegaResolution 0.0001


Applied RMS atom displacement 0 bohrs to make symmetries exact.
Applied RMS atom displacement 0 bohrs to make symmetries exact.

---------- Initializing the Grid ----------
R = 
[      23.4363     -11.7335            0  ]
[     0.017994      19.9418            0  ]
[            0            0      43.2563  ]
unit cell volume = 20225.5
G =
[   0.267976   0.157673         -0  ]
[ -0.000241801   0.314933          0  ]
[          0         -0   0.145255  ]
Minimum fftbox size, Smin = [  96  96  176  ]
Chosen fftbox size, S = [  96  96  180  ]

---------- Exchange Correlation functional ----------
Initalized PBE GGA exchange.
Initalized PBE GGA correlation.

---------- Setting up pseudopotentials ----------
Width of ionic core gaussian charges (only for fluid interactions / plotting) set to 0.397384

Reading pseudopotential file '/projects/musgravc/apps/jdftx-1.6.0/build/pseudopotentials/GBRV_v1.5/c_pbe_v1.2.uspp':
  Title: C.  Created by USPP 7.3.6 on 3-2-2014
  Reference state energy: -5.406344.  4 valence electrons in orbitals:
    |200>  occupation: 2  eigenvalue: -0.504890
    |210>  occupation: 2  eigenvalue: -0.194356
  lMax: 1  lLocal: 2  QijEcut: 5
  4 projectors sampled on a log grid with 503 points:
    l: 0  eig: -0.504890  rCut: 1.3
    l: 0  eig: 0.000000  rCut: 1.3
    l: 1  eig: -0.194357  rCut: 1.3
    l: 1  eig: 0.000000  rCut: 1.3
  Partial core density with radius 1.1
  Transforming core density to a uniform radial grid of dG=0.02 with 1464 points.
  Transforming local potential to a uniform radial grid of dG=0.02 with 1464 points.
  Transforming nonlocal projectors to a uniform radial grid of dG=0.02 with 432 points.
  Transforming density augmentations to a uniform radial grid of dG=0.02 with 1464 points.
  Transforming atomic orbitals to a uniform radial grid of dG=0.02 with 432 points.
  Core radius for overlap checks: 1.30 bohrs.

Reading pseudopotential file '/projects/musgravc/apps/jdftx-1.6.0/build/pseudopotentials/GBRV_v1.5/n_pbe_v1.2.uspp':
  Title: N.  Created by USPP 7.3.6 on 3-2-2014
  Reference state energy: -9.763716.  5 valence electrons in orbitals:
    |200>  occupation: 2  eigenvalue: -0.681964
    |210>  occupation: 3  eigenvalue: -0.260726
  lMax: 1  lLocal: 2  QijEcut: 6
  4 projectors sampled on a log grid with 491 points:
    l: 0  eig: -0.681964  rCut: 1.15
    l: 0  eig: 0.000000  rCut: 1.15
    l: 1  eig: -0.260729  rCut: 1.2
    l: 1  eig: 0.500000  rCut: 1.2
  Partial core density with radius 0.8
  Transforming core density to a uniform radial grid of dG=0.02 with 1464 points.
  Transforming local potential to a uniform radial grid of dG=0.02 with 1464 points.
  Transforming nonlocal projectors to a uniform radial grid of dG=0.02 with 432 points.
  Transforming density augmentations to a uniform radial grid of dG=0.02 with 1464 points.
  Transforming atomic orbitals to a uniform radial grid of dG=0.02 with 432 points.
  Core radius for overlap checks: 1.20 bohrs.

Reading pseudopotential file '/projects/musgravc/apps/jdftx-1.6.0/build/pseudopotentials/GBRV_v1.5/ti_pbe_v1.4.uspp':
  Title: Ti.  Created by USPP 7.3.6 on 31-3-15
  Reference state energy: -59.020943.  12 valence electrons in orbitals:
    |300>  occupation: 2  eigenvalue: -2.777623
    |310>  occupation: 6  eigenvalue: -1.894596
    |400>  occupation: 2  eigenvalue: -0.438610
    |320>  occupation: 1  eigenvalue: -0.583119
  lMax: 2  lLocal: 3  QijEcut: 6
  6 projectors sampled on a log grid with 597 points:
    l: 0  eig: -2.777624  rCut: 1.8
    l: 0  eig: -0.438611  rCut: 1.8
    l: 1  eig: -1.894596  rCut: 1.8
    l: 1  eig: 0.500000  rCut: 1.8
    l: 2  eig: -0.583118  rCut: 1.8
    l: 2  eig: 0.150000  rCut: 1.8
  Partial core density with radius 0.8
  Transforming core density to a uniform radial grid of dG=0.02 with 1464 points.
  Transforming local potential to a uniform radial grid of dG=0.02 with 1464 points.
  Transforming nonlocal projectors to a uniform radial grid of dG=0.02 with 432 points.
  Transforming density augmentations to a uniform radial grid of dG=0.02 with 1464 points.
  Transforming atomic orbitals to a uniform radial grid of dG=0.02 with 432 points.
  Core radius for overlap checks: 1.80 bohrs.

Reading pseudopotential file '/projects/musgravc/apps/jdftx-1.6.0/build/pseudopotentials/GBRV_v1.5/o_pbe_v1.2.uspp':
  Title: O.  Created by USPP 7.3.6 on 3-2-2014
  Reference state energy: -15.894388.  6 valence electrons in orbitals:
    |200>  occupation: 2  eigenvalue: -0.878823
    |210>  occupation: 4  eigenvalue: -0.332131
  lMax: 2  lLocal: 2  QijEcut: 6
  5 projectors sampled on a log grid with 511 points:
    l: 0  eig: -0.878823  rCut: 1.25
    l: 0  eig: 0.000000  rCut: 1.25
    l: 1  eig: -0.332132  rCut: 1.25
    l: 1  eig: 0.000000  rCut: 1.25
    l: 2  eig: 1.000000  rCut: 1.25
  Partial core density with radius 0.7
  Transforming core density to a uniform radial grid of dG=0.02 with 1464 points.
  Transforming local potential to a uniform radial grid of dG=0.02 with 1464 points.
  Transforming nonlocal projectors to a uniform radial grid of dG=0.02 with 432 points.
  Transforming density augmentations to a uniform radial grid of dG=0.02 with 1464 points.
  Transforming atomic orbitals to a uniform radial grid of dG=0.02 with 432 points.
  Core radius for overlap checks: 1.25 bohrs.

Reading pseudopotential file '/projects/musgravc/apps/jdftx-1.6.0/build/pseudopotentials/GBRV_v1.5/h_pbe_v1.4.uspp':
  Title: H.  Created by USPP 7.3.6 on 2-4-15
  Reference state energy: -0.458849.  1 valence electrons in orbitals:
    |100>  occupation: 1  eigenvalue: -0.238595
  lMax: 0  lLocal: 1  QijEcut: 6
  2 projectors sampled on a log grid with 395 points:
    l: 0  eig: -0.238595  rCut: 1.2
    l: 0  eig: 1.000000  rCut: 1.2
  Transforming local potential to a uniform radial grid of dG=0.02 with 1464 points.
  Transforming nonlocal projectors to a uniform radial grid of dG=0.02 with 432 points.
  Transforming density augmentations to a uniform radial grid of dG=0.02 with 1464 points.
  Transforming atomic orbitals to a uniform radial grid of dG=0.02 with 432 points.
  Core radius for overlap checks: 1.20 bohrs.

Initialized 5 species with 54 total atoms.

Folded 1 k-points by 3x3x1 to 9 k-points.

---------- Setting up k-points, bands, fillings ----------
No reducable k-points. 
Computing the number of bands and number of electrons
Calculating initial fillings.
nElectrons: 226.000000   nBands: 136   nStates: 18

----- Setting up reduced wavefunction bases (one per k-point) -----
average nbasis = 86412.556 , ideal nbasis = 86404.907

----- Initializing Supercell corresponding to k-point mesh -----
Lattice vector linear combinations in supercell:
[   3   0   0  ]
[   0   3   0  ]
[   0   0   1  ]
Supercell lattice vectors:
[  70.3088  -35.2004  0  ]
[  0.053982  59.8255  0  ]
[  0  0  43.2563  ]

Initializing DFT-D3 calculator:
	Parameters set for gga-PBE functional
	s6:  1.000  s_r6:  1.217
	s8:  0.722  s_r8:  1.000
	Per-atom parameters loaded for:
	 C:  sqrtQ[a0]:  3.105  Rcov[a0]:  1.417  CN: [ 0.00 0.99 2.00 3.00 3.98 ]
	 N:  sqrtQ[a0]:  2.712  Rcov[a0]:  1.342  CN: [ 0.00 0.99 2.01 2.99 ]
	Ti:  sqrtQ[a0]:  6.288  Rcov[a0]:  2.305  CN: [ 0.00 1.83 3.87 ]
	 O:  sqrtQ[a0]:  2.594  Rcov[a0]:  1.191  CN: [ 0.00 0.99 1.99 ]
	 H:  sqrtQ[a0]:  2.007  Rcov[a0]:  0.605  CN: [ 0.91 0.00 ]

Initializing DFT-D2 calculator for fluid / solvation:
	 C:  C6:   30.35 Eh-a0^6  R0: 2.744 a0
	 N:  C6:   21.33 Eh-a0^6  R0: 2.640 a0
	Ti:  C6:  187.33 Eh-a0^6  R0: 2.952 a0
	 O:  C6:   12.14 Eh-a0^6  R0: 2.536 a0
	 H:  C6:    2.43 Eh-a0^6  R0: 1.892 a0

---------- Setting up ewald sum ----------
Optimum gaussian width for ewald sums = 5.590847 bohr.
Real space sum over 567 unit cells with max indices [  4  4  3  ]
Reciprocal space sum over 7803 terms with max indices [  8  8  13  ]

Computing DFT-D3 correction:
# coordination-number C 3.303 3.324 3.336 3.333 3.314 3.290 3.326 3.609 3.330 3.314 3.303 3.324 3.306 3.302 3.324 3.581 3.266 3.302 3.321 3.336 3.330 3.305 3.306 3.329 3.336 3.321 3.302 3.267 3.607 3.324 3.302 3.305 3.324 3.304 3.314 3.329 3.581 3.322 3.290 3.314 3.333 3.336 3.324 3.303 2.005
# coordination-number N 3.179 3.177 3.180 3.177
# coordination-number Ti 6.536
# coordination-number O 1.029 1.986
# coordination-number H 0.992 0.996
# diagonal-C6 C 24.25 24.04 23.91 23.94 24.14 24.38 24.02 20.17 23.98 24.14 24.25 24.04 24.23 24.26 24.04 20.51 24.59 24.26 24.07 23.91 23.98 24.23 24.23 23.98 23.91 24.07 24.26 24.58 20.19 24.04 24.26 24.24 24.04 24.25 24.14 23.98 20.51 24.06 24.37 24.14 23.94 23.91 24.03 24.25 29.48
# diagonal-C6 N 15.60 15.60 15.60 15.60
# diagonal-C6 Ti 321.59
# diagonal-C6 O 12.79 10.41
# diagonal-C6 H 3.09 3.09
EvdW_6 =   -0.043177
EvdW_8 =   -0.033634

---------- Allocating electronic variables ----------
Initializing wave functions:  linear combination of atomic orbitals
C pseudo-atom occupations:   s ( 2 )  p ( 2 )
N pseudo-atom occupations:   s ( 2 )  p ( 3 )
Ti pseudo-atom occupations:   s ( 2 0 )  p ( 6 )  d ( 4 )
O pseudo-atom occupations:   s ( 2 )  p ( 4 )
H pseudo-atom occupations:   s ( 1 )
	FillingsUpdate:  mu: -0.127200000  nElectrons: 226.000000  magneticMoment: [ Abs: 0.00436  Tot: +0.00001 ]
LCAOMinimize: Iter:   0  G: -354.8204444997023188  |grad|_K:  3.306e-03  alpha:  1.000e+00
	FillingsUpdate:  mu: -0.127200000  nElectrons: 226.000000  magneticMoment: [ Abs: 0.00430  Tot: -0.00000 ]
LCAOMinimize: Iter:   1  G: -355.3523675005014297  |grad|_K:  1.873e-03  alpha:  8.980e-02  linmin: -1.478e-01  cgtest:  1.308e+00  t[s]:    291.08
LCAOMinimize: Encountered beta<0, resetting CG.
LCAOMinimize: 	Predicted alpha/alphaT>3.000000, increasing alphaT to 2.693984e-01.
	FillingsUpdate:  mu: -0.127200000  nElectrons: 226.000000  magneticMoment: [ Abs: 0.00433  Tot: -0.00009 ]
LCAOMinimize: Iter:   2  G: -355.8218317254997487  |grad|_K:  1.941e-03  alpha:  1.819e-01  linmin: -5.020e-02  cgtest:  5.111e-01  t[s]:    436.08
	FillingsUpdate:  mu: -0.127200000  nElectrons: 226.000000  magneticMoment: [ Abs: 0.00494  Tot: -0.00082 ]
LCAOMinimize: Iter:   3  G: -355.8463391648266452  |grad|_K:  2.392e-03  alpha:  3.854e-02  linmin:  1.334e-02  cgtest: -4.026e-01  t[s]:    551.74
	FillingsUpdate:  mu: -0.127200000  nElectrons: 226.000000  magneticMoment: [ Abs: 0.00497  Tot: -0.00085 ]
LCAOMinimize: Iter:   4  G: -355.8466245967378541  |grad|_K:  2.464e-03  alpha:  1.018e-03  linmin: -2.138e-04  cgtest:  9.860e-01  t[s]:    667.37
LCAOMinimize: 	Predicted alpha/alphaT>3.000000, increasing alphaT to 3.054186e-03.
LCAOMinimize: 	Predicted alpha/alphaT>3.000000, increasing alphaT to 9.162559e-03.
LCAOMinimize: 	Predicted alpha/alphaT>3.000000, increasing alphaT to 2.748768e-02.
	FillingsUpdate:  mu: -0.127200000  nElectrons: 226.000000  magneticMoment: [ Abs: 0.00431  Tot: -0.00001 ]
LCAOMinimize: Iter:   5  G: -356.1317953623671997  |grad|_K:  1.431e-03  alpha:  1.729e-01  linmin: -5.403e-02  cgtest: -1.093e+00  t[s]:    842.34
	FillingsUpdate:  mu: -0.127200000  nElectrons: 226.000000  magneticMoment: [ Abs: 0.00431  Tot: -0.00001 ]
LCAOMinimize: Iter:   6  G: -356.1475380604513248  |grad|_K:  1.444e-03  alpha:  4.552e-03  linmin: -8.236e-02  cgtest:  9.696e-01  t[s]:    958.18
LCAOMinimize: 	Wrong curvature in test step, increasing alphaT to 1.365524e-02.
	FillingsUpdate:  mu: -0.127200000  nElectrons: 226.000000  magneticMoment: [ Abs: 0.00432  Tot: -0.00001 ]
LCAOMinimize: Iter:   7  G: -356.1563943873313178  |grad|_K:  1.460e-03  alpha: -1.321e-01  linmin: -1.235e-01  cgtest:  9.764e-01  t[s]:   1071.63
	FillingsUpdate:  mu: -0.127200000  nElectrons: 226.000000  magneticMoment: [ Abs: 0.00434  Tot: -0.00001 ]
LCAOMinimize: Iter:   8  G: -356.2157263588654246  |grad|_K:  1.610e-03  alpha:  2.761e-02  linmin: -1.108e-01  cgtest:  8.270e-01  t[s]:   1188.53
LCAOMinimize: 	Wrong curvature in test step, increasing alphaT to 8.283976e-02.
	FillingsUpdate:  mu: -0.127200000  nElectrons: 226.000000  magneticMoment: [ Abs: 0.00440  Tot: -0.00003 ]
LCAOMinimize: Iter:   9  G: -356.3224767598774747  |grad|_K:  1.851e-03  alpha: -4.490e-02  linmin: -1.137e-01  cgtest:  7.043e-01  t[s]:   1302.57
	FillingsUpdate:  mu: -0.127200000  nElectrons: 226.000000  magneticMoment: [ Abs: 0.00571  Tot: -0.00161 ]
LCAOMinimize: Iter:  10  G: -356.3746148241818332  |grad|_K:  3.085e-03  alpha:  7.103e-02  linmin:  5.983e-02  cgtest: -4.452e-01  t[s]:   1419.34
LCAOMinimize: 	Bad step direction: g.d > 0.
LCAOMinimize: 	Undoing step.
LCAOMinimize: 	Step failed: resetting search direction.
	FillingsUpdate:  mu: -0.127200000  nElectrons: 226.000000  magneticMoment: [ Abs: 0.00571  Tot: -0.00161 ]
LCAOMinimize: Iter:  11  G: -356.3746148241818332  |grad|_K:  3.085e-03  alpha:  0.000e+00
	FillingsUpdate:  mu: -0.127200000  nElectrons: 226.000000  magneticMoment: [ Abs: 0.00490  Tot: -0.00070 ]
LCAOMinimize: Iter:  12  G: -356.5641393261446410  |grad|_K:  7.250e-04  alpha:  5.456e-02  linmin: -7.030e-02  cgtest:  1.036e+00  t[s]:   1623.77
LCAOMinimize: Encountered beta<0, resetting CG.
	FillingsUpdate:  mu: -0.127200000  nElectrons: 226.000000  magneticMoment: [ Abs: 0.00465  Tot: -0.00033 ]
LCAOMinimize: Iter:  13  G: -356.5942065716192246  |grad|_K:  3.972e-04  alpha:  1.262e-01  linmin: -2.480e-02  cgtest:  1.497e-01  t[s]:   1740.46
	FillingsUpdate:  mu: -0.127200000  nElectrons: 226.000000  magneticMoment: [ Abs: 0.00480  Tot: -0.00051 ]
LCAOMinimize: Iter:  14  G: -356.6015981018757657  |grad|_K:  1.739e-04  alpha:  9.341e-02  linmin:  4.899e-03  cgtest: -2.612e-01  t[s]:   1858.07
	FillingsUpdate:  mu: -0.127200000  nElectrons: 226.000000  magneticMoment: [ Abs: 0.00494  Tot: -0.00060 ]
LCAOMinimize: Iter:  15  G: -356.6032725736107523  |grad|_K:  1.255e-04  alpha:  1.351e-01  linmin: -1.327e-02  cgtest:  7.161e-01  t[s]:   1974.40
	FillingsUpdate:  mu: -0.127200000  nElectrons: 226.000000  magneticMoment: [ Abs: 0.00498  Tot: -0.00061 ]
LCAOMinimize: Iter:  16  G: -356.6038852324140294  |grad|_K:  7.466e-05  alpha:  8.668e-02  linmin:  1.165e-02  cgtest: -1.041e-01  t[s]:   2090.75
	FillingsUpdate:  mu: -0.127200000  nElectrons: 226.000000  magneticMoment: [ Abs: 0.00509  Tot: -0.00072 ]
LCAOMinimize: Iter:  17  G: -356.6040280508100864  |grad|_K:  5.761e-05  alpha:  7.463e-02  linmin: -7.957e-02  cgtest:  9.467e-01  t[s]:   2207.38
LCAOMinimize: Encountered beta<0, resetting CG.
	FillingsUpdate:  mu: -0.127200000  nElectrons: 226.000000  magneticMoment: [ Abs: 0.00514  Tot: -0.00077 ]
LCAOMinimize: Iter:  18  G: -356.6040401507219713  |grad|_K:  4.297e-05  alpha:  3.524e-02  linmin: -1.506e-01  cgtest:  9.155e-01  t[s]:   2323.74
LCAOMinimize: Encountered beta<0, resetting CG.
LCAOMinimize: 	Step increased G by 3.836789e-08, reducing alpha to 1.706668e-03.
	FillingsUpdate:  mu: -0.127200000  nElectrons: 226.000000  magneticMoment: [ Abs: 0.00514  Tot: -0.00077 ]
LCAOMinimize: Iter:  19  G: -356.6040402172247354  |grad|_K:  4.275e-05  alpha:  1.707e-03  linmin: -1.575e-01  cgtest:  9.999e-01  t[s]:   2527.60
LCAOMinimize: Encountered beta<0, resetting CG.
	FillingsUpdate:  mu: -0.127200000  nElectrons: 226.000000  magneticMoment: [ Abs: 0.00515  Tot: -0.00077 ]
LCAOMinimize: Iter:  20  G: -356.6040402473958579  |grad|_K:  4.264e-05  alpha:  8.716e-04  linmin: -1.582e-01  cgtest:  9.999e-01  t[s]:   2643.42
LCAOMinimize: Encountered beta<0, resetting CG.
LCAOMinimize: Converged (|Delta G|<1.000000e-06 for 2 iters).
----- createFluidSolver() ----- (Fluid-side solver setup)
   Initializing fluid molecule 'H2O'
     Initializing site 'O'
       Electron density: proportional to exp(-r/0.36935)*erfc((r-0.51523)/0.36823) with norm 6.826
       Charge density: gaussian nuclear width 0.478731 with net site charge 0.826
       Polarizability: cuspless exponential with width 0.32 and norm 3.73
       Hard sphere radius: 2.57003 bohrs
       Positions in reference frame:
         [ +0.000000 +0.000000 +0.000000 ]
     Initializing site 'H'
       Electron density: proportional to exp(-r/0.34641)*erfc((r-0)/0.390882) with norm 0.587
       Charge density: gaussian nuclear width 0.377945 with net site charge -0.413
       Polarizability: cuspless exponential with width 0.39 and norm 3.3
       Positions in reference frame:
         [ +0.000000 -1.441945 +1.122523 ]
         [ +0.000000 +1.441945 +1.122523 ]
     Net charge: 0   dipole magnitude: 0.927204
     Initializing spherical shell mfKernel with radius 2.61727 Bohr
     deltaS corrections:
       site 'O': -7.54299
       site 'H': -6.83917
   Initializing fluid molecule 'Na+'
     Initializing site 'Na'
       Electron density: proportional to exp(-r/0.19682)*erfc((r-0.71491)/0.41314) with norm 8.1383
       Charge density: gaussian nuclear width 0.365347 with net site charge -1
       Hard sphere radius: 1.86327 bohrs
       Positions in reference frame:
         [ +0.000000 +0.000000 +0.000000 ]
     Net charge: -1   dipole magnitude: 0
     Initializing gaussian mfKernel with width: 1.55004 Bohr
     deltaS corrections:
       site 'Na': -22.3555
   Initializing fluid molecule 'F-'
     Initializing site 'F'
       Electron density: proportional to exp(-r/0.38886)*erfc((r-0)/0.438782) with norm 8
       Charge density: gaussian nuclear width 0.374796 with net site charge 1
       Hard sphere radius: 2.39995 bohrs
       Positions in reference frame:
         [ +0.000000 +0.000000 +0.000000 ]
     Net charge: 1   dipole magnitude: 0
     Initializing gaussian mfKernel with width: 1.59012 Bohr
     deltaS corrections:
       site 'F': -9.04335

Correction to mu due to finite nuclear width = -0.0110869
   Cavity determined by nc: 0.00142 and sigma: 0.707107
   Nonlocal vdW cavity from gaussian model electron density with norm = 8 and sigma = 0.993594 bohr
   Charge asymmetry in cavity with sensitivity pCavity = 36.5 e-bohr/Eh
   Electrostatic cavity expanded by eta = 1.46 bohrs
   Weighted density cavitation model constrained by Nbulk: 0.0049383 bohr^-3, Pvap: 3.14029 kPa, Rvdw: 2.61727 bohr and sigmaBulk: 4.62e-05 Eh/bohr^2 at T: 298 K.
   Weighted density dispersion model using vdW pair potentials with single solvent site with sqrtC6eff: 0.77 SI.
WARNING: Vibrations: switching off translationSym and rotationSym since useConstraints is on.

---- Citations for features of the code used in this run ----

   Software package:
      R. Sundararaman, K. Letchworth-Weaver, K.A. Schwarz, D. Gunceler, Y. Ozhabes and T.A. Arias, 'JDFTx: software for joint density-functional theory', SoftwareX 6, 278 (2017)

   gga-PBE exchange-correlation functional:
      J.P. Perdew, K. Burke and M. Ernzerhof, Phys. Rev. Lett. 77, 3865 (1996)

   Pseudopotentials:
      KF Garrity, JW Bennett, KM Rabe and D Vanderbilt, Comput. Mater. Sci. 81, 446 (2014)

   DFT-D3 dispersion correction:
      S. Grimme, J. Antony, S. Ehrlich and H. Krieg, J. Chem. Phys. 132, 154104 (2010)

   DFT-D2 dispersion correction:
      S. Grimme, J. Comput. Chem. 27, 1787 (2006)

   Charge-asymmetric nonlocally-determined local-electric (CANDLE) solvation model:
      R. Sundararaman and W.A. Goddard III, J. Chem. Phys. 142, 064107 (2015)

   Total energy minimization with Auxiliary Hamiltonian:
      C. Freysoldt, S. Boeck, and J. Neugebauer, Phys. Rev. B 79, 241103(R) (2009)

   Grand-canonical (fixed-potential) DFT:
      R. Sundararaman, W. A. Goddard III and T. A. Arias, J. Chem. Phys. 146, 114104 (2017)

   Linear-tetrahedron sampling for density of states:
      G. Lehmann and M. Taut, Phys. status solidi (b) 54, 469 (1972)

This list may not be complete. Please suggest additional citations or
report any other bugs at https://github.com/shankar1729/jdftx/issues

Initialization completed successfully at t[s]:   2658.81

------ Vibrations::calculate() -------
WARNING: Vibrations module is experimental. Please report bugs!
Compare results with and without symmetries and report discrepancies.
Degrees of freedom: 15 total, 15 symmetry-independent.

Computing DFT-D3 correction:
# coordination-number C 3.303 3.324 3.336 3.333 3.314 3.290 3.326 3.609 3.330 3.314 3.303 3.324 3.306 3.302 3.324 3.581 3.266 3.302 3.321 3.336 3.330 3.305 3.306 3.329 3.336 3.321 3.302 3.267 3.607 3.324 3.302 3.305 3.324 3.304 3.314 3.329 3.581 3.322 3.290 3.314 3.333 3.336 3.324 3.303 2.005
# coordination-number N 3.179 3.177 3.180 3.177
# coordination-number Ti 6.536
# coordination-number O 1.029 1.986
# coordination-number H 0.992 0.996
# diagonal-C6 C 24.25 24.04 23.91 23.94 24.14 24.38 24.02 20.17 23.98 24.14 24.25 24.04 24.23 24.26 24.04 20.51 24.59 24.26 24.07 23.91 23.98 24.23 24.23 23.98 23.91 24.07 24.26 24.58 20.19 24.04 24.26 24.24 24.04 24.25 24.14 23.98 20.51 24.06 24.37 24.14 23.94 23.91 24.03 24.25 29.48
# diagonal-C6 N 15.60 15.60 15.60 15.60
# diagonal-C6 Ti 321.59
# diagonal-C6 O 12.79 10.41
# diagonal-C6 H 3.09 3.09
EvdW_6 =   -0.043177
EvdW_8 =   -0.033634
Fluid solver invoked on fresh (random / LCAO) wavefunctions
Running a vacuum solve first:

-------- Initial electronic minimization -----------
	FillingsUpdate:  mu: -0.201201527  nElectrons: 226.000000  magneticMoment: [ Abs: 0.00515  Tot: -0.00077 ]
ElecMinimize: Iter:   0  G: -356.603172978173689  |grad|_K:  1.440e-04  alpha:  1.000e+00
	FillingsUpdate:  mu: -0.137022329  nElectrons: 226.000000  magneticMoment: [ Abs: 0.00430  Tot: -0.00188 ]
	SubspaceRotationAdjust: set factor to 1
ElecMinimize: Iter:   1  G: -359.568905894231932  |grad|_K:  5.231e-05  alpha:  6.847e-01  linmin:  6.327e-05  t[s]:   2845.25
	FillingsUpdate:  mu: -0.068444879  nElectrons: 226.000000  magneticMoment: [ Abs: 0.00554  Tot: -0.00363 ]
	SubspaceRotationAdjust: set factor to 0.918
ElecMinimize: Iter:   2  G: -359.653452127592459  |grad|_K:  3.621e-05  alpha:  1.075e-01  linmin: -1.232e-03  t[s]:   2958.18
ElecMinimize: 	Predicted alpha/alphaT>3.000000, increasing alphaT to 3.223544e-01.
	FillingsUpdate:  mu: -0.073818220  nElectrons: 226.000000  magneticMoment: [ Abs: 0.00806  Tot: -0.00685 ]
	SubspaceRotationAdjust: set factor to 0.638
ElecMinimize: Iter:   3  G: -359.806724205212731  |grad|_K:  3.801e-05  alpha:  3.827e-01  linmin: -6.233e-05  t[s]:   3100.16
	FillingsUpdate:  mu: -0.118123820  nElectrons: 226.000000  magneticMoment: [ Abs: 0.00748  Tot: -0.00614 ]
	SubspaceRotationAdjust: set factor to 0.514
ElecMinimize: Iter:   4  G: -359.840460679303078  |grad|_K:  2.282e-05  alpha:  1.289e-01  linmin:  1.253e-04  t[s]:   3214.00
	FillingsUpdate:  mu: -0.102665579  nElectrons: 226.000000  magneticMoment: [ Abs: 0.01764  Tot: -0.01689 ]
	SubspaceRotationAdjust: set factor to 0.408
ElecMinimize: Iter:   5  G: -359.871014246985283  |grad|_K:  1.633e-05  alpha:  3.322e-01  linmin:  2.047e-04  t[s]:   3327.37
	FillingsUpdate:  mu: -0.077232036  nElectrons: 226.000000  magneticMoment: [ Abs: 0.02916  Tot: -0.02819 ]
	SubspaceRotationAdjust: set factor to 0.403
ElecMinimize: Iter:   6  G: -359.890095070440793  |grad|_K:  1.215e-05  alpha:  3.896e-01  linmin: -4.353e-06  t[s]:   3441.21
	FillingsUpdate:  mu: -0.086534869  nElectrons: 226.000000  magneticMoment: [ Abs: 0.03161  Tot: -0.02961 ]
	SubspaceRotationAdjust: set factor to 0.409
ElecMinimize: Iter:   7  G: -359.899340305581802  |grad|_K:  7.133e-06  alpha:  3.001e-01  linmin: -1.033e-04  t[s]:   3554.46
	FillingsUpdate:  mu: -0.097911050  nElectrons: 226.000000  magneticMoment: [ Abs: 0.03995  Tot: -0.03661 ]
	SubspaceRotationAdjust: set factor to 0.414
ElecMinimize: Iter:   8  G: -359.904625443876228  |grad|_K:  5.679e-06  alpha:  4.829e-01  linmin: -6.042e-05  t[s]:   3667.85
	FillingsUpdate:  mu: -0.085493294  nElectrons: 226.000000  magneticMoment: [ Abs: 0.05841  Tot: -0.05456 ]
	SubspaceRotationAdjust: set factor to 0.443
ElecMinimize: Iter:   9  G: -359.906886905529916  |grad|_K:  3.394e-06  alpha:  3.274e-01  linmin:  1.066e-07  t[s]:   3780.98
	FillingsUpdate:  mu: -0.085592063  nElectrons: 226.000000  magneticMoment: [ Abs: 0.08420  Tot: -0.07940 ]
	SubspaceRotationAdjust: set factor to 0.443
ElecMinimize: Iter:  10  G: -359.907893009222846  |grad|_K:  2.513e-06  alpha:  4.130e-01  linmin:  6.261e-06  t[s]:   3894.35
	FillingsUpdate:  mu: -0.090465662  nElectrons: 226.000000  magneticMoment: [ Abs: 0.12127  Tot: -0.11428 ]
	SubspaceRotationAdjust: set factor to 0.442
ElecMinimize: Iter:  11  G: -359.908479108570816  |grad|_K:  2.008e-06  alpha:  4.402e-01  linmin: -2.791e-07  t[s]:   4007.20
	FillingsUpdate:  mu: -0.087976706  nElectrons: 226.000000  magneticMoment: [ Abs: 0.17366  Tot: -0.16383 ]
	SubspaceRotationAdjust: set factor to 0.464
ElecMinimize: Iter:  12  G: -359.908802925500765  |grad|_K:  1.604e-06  alpha:  3.789e-01  linmin:  1.898e-06  t[s]:   4120.48
	FillingsUpdate:  mu: -0.087806188  nElectrons: 226.000000  magneticMoment: [ Abs: 0.28051  Tot: -0.26503 ]
	SubspaceRotationAdjust: set factor to 0.558
ElecMinimize: Iter:  13  G: -359.909097013626933  |grad|_K:  1.577e-06  alpha:  5.428e-01  linmin:  5.953e-06  t[s]:   4233.92
	FillingsUpdate:  mu: -0.089910030  nElectrons: 226.000000  magneticMoment: [ Abs: 0.52400  Tot: -0.49947 ]
	SubspaceRotationAdjust: set factor to 0.645
ElecMinimize: Iter:  14  G: -359.909441829968898  |grad|_K:  2.513e-06  alpha:  6.571e-01  linmin: -9.206e-06  t[s]:   4347.26
	FillingsUpdate:  mu: -0.084195102  nElectrons: 226.000000  magneticMoment: [ Abs: 1.30475  Tot: -1.27189 ]
	SubspaceRotationAdjust: set factor to 0.645
ElecMinimize: Iter:  15  G: -359.910333051880002  |grad|_K:  5.073e-06  alpha:  5.809e-01  linmin:  1.414e-04  t[s]:   4460.36
	FillingsUpdate:  mu: -0.083936800  nElectrons: 226.000000  magneticMoment: [ Abs: 1.48723  Tot: -1.44843 ]
	SubspaceRotationAdjust: set factor to 0.732
ElecMinimize: Iter:  16  G: -359.910435308931085  |grad|_K:  5.350e-06  alpha:  4.761e-02  linmin:  9.835e-05  t[s]:   4573.57
	FillingsUpdate:  mu: -0.084939667  nElectrons: 226.000000  magneticMoment: [ Abs: 1.57934  Tot: -1.53233 ]
	SubspaceRotationAdjust: set factor to 0.936
ElecMinimize: Iter:  17  G: -359.910580453531054  |grad|_K:  5.245e-06  alpha:  3.250e-02  linmin: -9.203e-07  t[s]:   4687.17
	FillingsUpdate:  mu: -0.087313331  nElectrons: 226.000000  magneticMoment: [ Abs: 1.64667  Tot: -1.58497 ]
	SubspaceRotationAdjust: set factor to 1.25
ElecMinimize: Iter:  18  G: -359.910823496683633  |grad|_K:  4.805e-06  alpha:  4.061e-02  linmin: -6.337e-05  t[s]:   4800.95
	FillingsUpdate:  mu: -0.090385729  nElectrons: 226.000000  magneticMoment: [ Abs: 1.69513  Tot: -1.61143 ]
	SubspaceRotationAdjust: set factor to 1.5
ElecMinimize: Iter:  19  G: -359.911113423836355  |grad|_K:  4.284e-06  alpha:  5.299e-02  linmin: -1.383e-04  t[s]:   4914.00
	FillingsUpdate:  mu: -0.091982428  nElectrons: 226.000000  magneticMoment: [ Abs: 1.74541  Tot: -1.63340 ]
	SubspaceRotationAdjust: set factor to 1.79
ElecMinimize: Iter:  20  G: -359.911407815997961  |grad|_K:  4.272e-06  alpha:  6.887e-02  linmin: -4.346e-05  t[s]:   5028.07
	FillingsUpdate:  mu: -0.091539745  nElectrons: 226.000000  magneticMoment: [ Abs: 1.81738  Tot: -1.67677 ]
	SubspaceRotationAdjust: set factor to 2.36
ElecMinimize: Iter:  21  G: -359.911698419289678  |grad|_K:  4.069e-06  alpha:  7.203e-02  linmin: -4.037e-06  t[s]:   5141.73
	FillingsUpdate:  mu: -0.089990614  nElectrons: 226.000000  magneticMoment: [ Abs: 1.88824  Tot: -1.73107 ]
	SubspaceRotationAdjust: set factor to 2.76
ElecMinimize: Iter:  22  G: -359.911914154013516  |grad|_K:  3.848e-06  alpha:  6.131e-02  linmin: -2.277e-06  t[s]:   5254.94
	FillingsUpdate:  mu: -0.090059090  nElectrons: 226.000000  magneticMoment: [ Abs: 1.94701  Tot: -1.77175 ]
	SubspaceRotationAdjust: set factor to 3.25
ElecMinimize: Iter:  23  G: -359.912127475942953  |grad|_K:  3.671e-06  alpha:  6.725e-02  linmin: -4.753e-06  t[s]:   5367.81
	FillingsUpdate:  mu: -0.092456989  nElectrons: 226.000000  magneticMoment: [ Abs: 1.97217  Tot: -1.77418 ]
	SubspaceRotationAdjust: set factor to 3.42
ElecMinimize: Iter:  24  G: -359.912318139172726  |grad|_K:  3.905e-06  alpha:  6.529e-02  linmin:  5.863e-07  t[s]:   5481.35
	FillingsUpdate:  mu: -0.092513753  nElectrons: 226.000000  magneticMoment: [ Abs: 1.99658  Tot: -1.77640 ]
	SubspaceRotationAdjust: set factor to 3.49
ElecMinimize: Iter:  25  G: -359.912541583102609  |grad|_K:  3.815e-06  alpha:  6.943e-02  linmin:  1.622e-07  t[s]:   5594.54
	FillingsUpdate:  mu: -0.090275141  nElectrons: 226.000000  magneticMoment: [ Abs: 2.01380  Tot: -1.78636 ]
	SubspaceRotationAdjust: set factor to 3.93
ElecMinimize: Iter:  26  G: -359.912691731703035  |grad|_K:  3.553e-06  alpha:  4.891e-02  linmin: -1.838e-07  t[s]:   5707.79
	FillingsUpdate:  mu: -0.089352190  nElectrons: 226.000000  magneticMoment: [ Abs: 2.00441  Tot: -1.76525 ]
	SubspaceRotationAdjust: set factor to 3.16
ElecMinimize: Iter:  27  G: -359.912907533646433  |grad|_K:  4.145e-06  alpha:  8.089e-02  linmin:  4.466e-06  t[s]:   5821.68
	FillingsUpdate:  mu: -0.091328650  nElectrons: 226.000000  magneticMoment: [ Abs: 1.97644  Tot: -1.72718 ]
	SubspaceRotationAdjust: set factor to 4.16
ElecMinimize: Iter:  28  G: -359.913055109292657  |grad|_K:  3.282e-06  alpha:  4.025e-02  linmin: -4.005e-06  t[s]:   5936.13
	FillingsUpdate:  mu: -0.091898424  nElectrons: 226.000000  magneticMoment: [ Abs: 1.95419  Tot: -1.70540 ]
	SubspaceRotationAdjust: set factor to 4.76
ElecMinimize: Iter:  29  G: -359.913202505141044  |grad|_K:  3.537e-06  alpha:  6.435e-02  linmin:  2.131e-07  t[s]:   6049.50
	FillingsUpdate:  mu: -0.089822711  nElectrons: 226.000000  magneticMoment: [ Abs: 1.94686  Tot: -1.70718 ]
	SubspaceRotationAdjust: set factor to 4.85
ElecMinimize: Iter:  30  G: -359.913314938817052  |grad|_K:  3.545e-06  alpha:  4.250e-02  linmin: -3.342e-08  t[s]:   6162.21
	FillingsUpdate:  mu: -0.088912746  nElectrons: 226.000000  magneticMoment: [ Abs: 1.91092  Tot: -1.67825 ]
	SubspaceRotationAdjust: set factor to 4.66
ElecMinimize: Iter:  31  G: -359.913467546562629  |grad|_K:  3.380e-06  alpha:  5.764e-02  linmin:  2.532e-06  t[s]:   6275.43
	FillingsUpdate:  mu: -0.090634735  nElectrons: 226.000000  magneticMoment: [ Abs: 1.88150  Tot: -1.64871 ]
	SubspaceRotationAdjust: set factor to 4.77
ElecMinimize: Iter:  32  G: -359.913541470171765  |grad|_K:  2.771e-06  alpha:  3.132e-02  linmin:  1.033e-06  t[s]:   6388.89
	FillingsUpdate:  mu: -0.091220139  nElectrons: 226.000000  magneticMoment: [ Abs: 1.86128  Tot: -1.63293 ]
	SubspaceRotationAdjust: set factor to 3.79
ElecMinimize: Iter:  33  G: -359.913651015239736  |grad|_K:  3.565e-06  alpha:  6.793e-02  linmin:  1.606e-06  t[s]:   6502.54
	FillingsUpdate:  mu: -0.089545584  nElectrons: 226.000000  magneticMoment: [ Abs: 1.86834  Tot: -1.64738 ]
	SubspaceRotationAdjust: set factor to 4.45
ElecMinimize: Iter:  34  G: -359.913751691469429  |grad|_K:  2.826e-06  alpha:  3.766e-02  linmin:  8.451e-07  t[s]:   6616.47
	FillingsUpdate:  mu: -0.088285520  nElectrons: 226.000000  magneticMoment: [ Abs: 1.88237  Tot: -1.66720 ]
	SubspaceRotationAdjust: set factor to 4.14
ElecMinimize: Iter:  35  G: -359.913851270904559  |grad|_K:  3.206e-06  alpha:  5.897e-02  linmin:  5.280e-07  t[s]:   6730.68
	FillingsUpdate:  mu: -0.090016904  nElectrons: 226.000000  magneticMoment: [ Abs: 1.88100  Tot: -1.66388 ]
	SubspaceRotationAdjust: set factor to 4.81
ElecMinimize: Iter:  36  G: -359.913938654668698  |grad|_K:  2.850e-06  alpha:  4.028e-02  linmin: -3.407e-08  t[s]:   6844.05
	FillingsUpdate:  mu: -0.090879032  nElectrons: 226.000000  magneticMoment: [ Abs: 1.88069  Tot: -1.65841 ]
	SubspaceRotationAdjust: set factor to 3.76
ElecMinimize: Iter:  37  G: -359.914052178296799  |grad|_K:  3.537e-06  alpha:  6.591e-02  linmin: -5.937e-07  t[s]:   6957.51
	FillingsUpdate:  mu: -0.089055400  nElectrons: 226.000000  magneticMoment: [ Abs: 1.89550  Tot: -1.67318 ]
	SubspaceRotationAdjust: set factor to 4.61
ElecMinimize: Iter:  38  G: -359.914138071799130  |grad|_K:  2.506e-06  alpha:  3.226e-02  linmin: -1.611e-07  t[s]:   7071.62
	FillingsUpdate:  mu: -0.087438742  nElectrons: 226.000000  magneticMoment: [ Abs: 1.90892  Tot: -1.68696 ]
	SubspaceRotationAdjust: set factor to 3.98
ElecMinimize: Iter:  39  G: -359.914224723713971  |grad|_K:  3.259e-06  alpha:  6.503e-02  linmin: -7.207e-07  t[s]:   7185.18
	FillingsUpdate:  mu: -0.089111170  nElectrons: 226.000000  magneticMoment: [ Abs: 1.90388  Tot: -1.67750 ]
	SubspaceRotationAdjust: set factor to 5.22
ElecMinimize: Iter:  40  G: -359.914306857488782  |grad|_K:  2.377e-06  alpha:  3.630e-02  linmin: -4.112e-07  t[s]:   7300.09
	FillingsUpdate:  mu: -0.090481581  nElectrons: 226.000000  magneticMoment: [ Abs: 1.89647  Tot: -1.66847 ]
	SubspaceRotationAdjust: set factor to 3.9
ElecMinimize: Iter:  41  G: -359.914375215087318  |grad|_K:  3.005e-06  alpha:  5.709e-02  linmin:  2.860e-06  t[s]:   7414.11
	FillingsUpdate:  mu: -0.089299446  nElectrons: 226.000000  magneticMoment: [ Abs: 1.89906  Tot: -1.67558 ]
	SubspaceRotationAdjust: set factor to 4.86
ElecMinimize: Iter:  42  G: -359.914440502647267  |grad|_K:  2.169e-06  alpha:  3.424e-02  linmin:  1.040e-07  t[s]:   7526.72
	FillingsUpdate:  mu: -0.087838533  nElectrons: 226.000000  magneticMoment: [ Abs: 1.89169  Tot: -1.67266 ]
	SubspaceRotationAdjust: set factor to 4.2
ElecMinimize: Iter:  43  G: -359.914496951385559  |grad|_K:  2.563e-06  alpha:  5.683e-02  linmin:  9.448e-07  t[s]:   7636.23
	FillingsUpdate:  mu: -0.088955787  nElectrons: 226.000000  magneticMoment: [ Abs: 1.86785  Tot: -1.64993 ]
	SubspaceRotationAdjust: set factor to 5.05
ElecMinimize: Iter:  44  G: -359.914545171239013  |grad|_K:  1.975e-06  alpha:  3.503e-02  linmin:  2.541e-07  t[s]:   7749.72
	FillingsUpdate:  mu: -0.090191115  nElectrons: 226.000000  magneticMoment: [ Abs: 1.84274  Tot: -1.62972 ]
	SubspaceRotationAdjust: set factor to 4.12
ElecMinimize: Iter:  45  G: -359.914597363452970  |grad|_K:  2.687e-06  alpha:  6.291e-02  linmin: -2.052e-06  t[s]:   7862.80
	FillingsUpdate:  mu: -0.089391371  nElectrons: 226.000000  magneticMoment: [ Abs: 1.83243  Tot: -1.62963 ]
	SubspaceRotationAdjust: set factor to 5.94
ElecMinimize: Iter:  46  G: -359.914657911682013  |grad|_K:  1.961e-06  alpha:  3.896e-02  linmin: -1.127e-07  t[s]:   7976.46
	FillingsUpdate:  mu: -0.088253054  nElectrons: 226.000000  magneticMoment: [ Abs: 1.83259  Tot: -1.63820 ]
	SubspaceRotationAdjust: set factor to 4.51
ElecMinimize: Iter:  47  G: -359.914702979543051  |grad|_K:  2.550e-06  alpha:  5.533e-02  linmin:  4.372e-07  t[s]:   8088.77
	FillingsUpdate:  mu: -0.089600098  nElectrons: 226.000000  magneticMoment: [ Abs: 1.82233  Tot: -1.63371 ]
	SubspaceRotationAdjust: set factor to 4.44
ElecMinimize: Iter:  48  G: -359.914755815954436  |grad|_K:  2.048e-06  alpha:  3.843e-02  linmin:  2.342e-07  t[s]:   8202.21
	FillingsUpdate:  mu: -0.090440009  nElectrons: 226.000000  magneticMoment: [ Abs: 1.81462  Tot: -1.62878 ]
	SubspaceRotationAdjust: set factor to 3.94
ElecMinimize: Iter:  49  G: -359.914805487438571  |grad|_K:  2.061e-06  alpha:  5.587e-02  linmin: -9.657e-07  t[s]:   8314.76
	FillingsUpdate:  mu: -0.089389885  nElectrons: 226.000000  magneticMoment: [ Abs: 1.82072  Tot: -1.63659 ]
	SubspaceRotationAdjust: set factor to 4.5
ElecMinimize: Iter:  50  G: -359.914839201463394  |grad|_K:  1.555e-06  alpha:  3.731e-02  linmin: -1.054e-09  t[s]:   8427.64
	FillingsUpdate:  mu: -0.088581218  nElectrons: 226.000000  magneticMoment: [ Abs: 1.83218  Tot: -1.64725 ]
	SubspaceRotationAdjust: set factor to 4.01
ElecMinimize: Iter:  51  G: -359.914875460021221  |grad|_K:  1.953e-06  alpha:  7.087e-02  linmin:  1.201e-07  t[s]:   8539.96
	FillingsUpdate:  mu: -0.089736546  nElectrons: 226.000000  magneticMoment: [ Abs: 1.83543  Tot: -1.64629 ]
	SubspaceRotationAdjust: set factor to 4.71
ElecMinimize: Iter:  52  G: -359.914905870453367  |grad|_K:  1.451e-06  alpha:  3.775e-02  linmin:  6.956e-08  t[s]:   8652.74
	FillingsUpdate:  mu: -0.090507947  nElectrons: 226.000000  magneticMoment: [ Abs: 1.84149  Tot: -1.64703 ]
	SubspaceRotationAdjust: set factor to 3.83
ElecMinimize: Iter:  53  G: -359.914934759375058  |grad|_K:  1.763e-06  alpha:  6.482e-02  linmin: -1.656e-07  t[s]:   8764.56
	FillingsUpdate:  mu: -0.089572087  nElectrons: 226.000000  magneticMoment: [ Abs: 1.85354  Tot: -1.65588 ]
	SubspaceRotationAdjust: set factor to 4.61
ElecMinimize: Iter:  54  G: -359.914959535952278  |grad|_K:  1.349e-06  alpha:  3.767e-02  linmin:  1.294e-07  t[s]:   8877.93
	FillingsUpdate:  mu: -0.088894146  nElectrons: 226.000000  magneticMoment: [ Abs: 1.85872  Tot: -1.65660 ]
	SubspaceRotationAdjust: set factor to 3.84
ElecMinimize: Iter:  55  G: -359.914984564696226  |grad|_K:  1.528e-06  alpha:  6.502e-02  linmin:  2.415e-08  t[s]:   8989.89
	FillingsUpdate:  mu: -0.089741052  nElectrons: 226.000000  magneticMoment: [ Abs: 1.85318  Tot: -1.64681 ]
	SubspaceRotationAdjust: set factor to 4.67
ElecMinimize: Iter:  56  G: -359.915001766936598  |grad|_K:  1.153e-06  alpha:  3.485e-02  linmin:  2.289e-07  t[s]:   9102.81
	FillingsUpdate:  mu: -0.090239226  nElectrons: 226.000000  magneticMoment: [ Abs: 1.84808  Tot: -1.63997 ]
	SubspaceRotationAdjust: set factor to 3.85
ElecMinimize: Iter:  57  G: -359.915020382441696  |grad|_K:  1.351e-06  alpha:  6.626e-02  linmin:  1.582e-07  t[s]:   9214.95
	FillingsUpdate:  mu: -0.089566232  nElectrons: 226.000000  magneticMoment: [ Abs: 1.84982  Tot: -1.64319 ]
	SubspaceRotationAdjust: set factor to 4.42
ElecMinimize: Iter:  58  G: -359.915032748570241  |grad|_K:  9.634e-07  alpha:  3.203e-02  linmin: -1.112e-08  t[s]:   9327.03
	FillingsUpdate:  mu: -0.088981112  nElectrons: 226.000000  magneticMoment: [ Abs: 1.84883  Tot: -1.64554 ]
	SubspaceRotationAdjust: set factor to 3.71
ElecMinimize: Iter:  59  G: -359.915046097472327  |grad|_K:  1.296e-06  alpha:  6.789e-02  linmin: -1.975e-07  t[s]:   9439.55
	FillingsUpdate:  mu: -0.089676894  nElectrons: 226.000000  magneticMoment: [ Abs: 1.83937  Tot: -1.63893 ]
	SubspaceRotationAdjust: set factor to 4.93
ElecMinimize: Iter:  60  G: -359.915060622517387  |grad|_K:  1.043e-06  alpha:  4.074e-02  linmin: -8.821e-08  t[s]:   9551.41
	FillingsUpdate:  mu: -0.090260213  nElectrons: 226.000000  magneticMoment: [ Abs: 1.82973  Tot: -1.63247 ]
	SubspaceRotationAdjust: set factor to 4.03
ElecMinimize: Iter:  61  G: -359.915074691286691  |grad|_K:  1.329e-06  alpha:  6.106e-02  linmin:  8.946e-07  t[s]:   9664.16
	FillingsUpdate:  mu: -0.089641653  nElectrons: 226.000000  magneticMoment: [ Abs: 1.82843  Tot: -1.63542 ]
	SubspaceRotationAdjust: set factor to 4.94
ElecMinimize: Iter:  62  G: -359.915088507031328  |grad|_K:  1.046e-06  alpha:  3.708e-02  linmin:  2.990e-07  t[s]:   9777.42
	FillingsUpdate:  mu: -0.088891843  nElectrons: 226.000000  magneticMoment: [ Abs: 1.83189  Tot: -1.64258 ]
	SubspaceRotationAdjust: set factor to 3.53
ElecMinimize: Iter:  63  G: -359.915102961626246  |grad|_K:  1.417e-06  alpha:  6.246e-02  linmin: -1.050e-07  t[s]:   9890.52
	FillingsUpdate:  mu: -0.089529240  nElectrons: 226.000000  magneticMoment: [ Abs: 1.83106  Tot: -1.64284 ]
	SubspaceRotationAdjust: set factor to 4.79
ElecMinimize: Iter:  64  G: -359.915118969308651  |grad|_K:  9.853e-07  alpha:  3.768e-02  linmin:  6.068e-08  t[s]:  10003.77
	FillingsUpdate:  mu: -0.090241945  nElectrons: 226.000000  magneticMoment: [ Abs: 1.83072  Tot: -1.64083 ]
	SubspaceRotationAdjust: set factor to 4.11
ElecMinimize: Iter:  65  G: -359.915130605380568  |grad|_K:  1.176e-06  alpha:  5.662e-02  linmin: -1.671e-07  t[s]:  10113.05
	FillingsUpdate:  mu: -0.089842812  nElectrons: 226.000000  magneticMoment: [ Abs: 1.83801  Tot: -1.64582 ]
	SubspaceRotationAdjust: set factor to 5.61
ElecMinimize: Iter:  66  G: -359.915142821078234  |grad|_K:  8.919e-07  alpha:  4.171e-02  linmin: -1.491e-08  t[s]:  10221.90
	FillingsUpdate:  mu: -0.089276272  nElectrons: 226.000000  magneticMoment: [ Abs: 1.84687  Tot: -1.65121 ]
	SubspaceRotationAdjust: set factor to 4.71
ElecMinimize: Iter:  67  G: -359.915152591515323  |grad|_K:  1.116e-06  alpha:  5.800e-02  linmin: -3.736e-07  t[s]:  10334.22
	FillingsUpdate:  mu: -0.089796008  nElectrons: 226.000000  magneticMoment: [ Abs: 1.85108  Tot: -1.64968 ]
	SubspaceRotationAdjust: set factor to 5.66
ElecMinimize: Iter:  68  G: -359.915161846155854  |grad|_K:  8.141e-07  alpha:  3.499e-02  linmin: -7.344e-07  t[s]:  10446.25
	FillingsUpdate:  mu: -0.090211656  nElectrons: 226.000000  magneticMoment: [ Abs: 1.85695  Tot: -1.64989 ]
	SubspaceRotationAdjust: set factor to 4.5
ElecMinimize: Iter:  69  G: -359.915170546407126  |grad|_K:  1.044e-06  alpha:  6.201e-02  linmin:  4.623e-07  t[s]:  10559.05
	FillingsUpdate:  mu: -0.089661389  nElectrons: 226.000000  magneticMoment: [ Abs: 1.86690  Tot: -1.65634 ]
	SubspaceRotationAdjust: set factor to 5.21
ElecMinimize: Iter:  70  G: -359.915178467042438  |grad|_K:  8.247e-07  alpha:  3.434e-02  linmin: -5.596e-08  t[s]:  10670.77
	FillingsUpdate:  mu: -0.089307644  nElectrons: 226.000000  magneticMoment: [ Abs: 1.87347  Tot: -1.65925 ]
	SubspaceRotationAdjust: set factor to 4.23
ElecMinimize: Iter:  71  G: -359.915187887939339  |grad|_K:  9.698e-07  alpha:  6.545e-02  linmin:  2.074e-07  t[s]:  10782.90
	FillingsUpdate:  mu: -0.089846878  nElectrons: 226.000000  magneticMoment: [ Abs: 1.87169  Tot: -1.65491 ]
	SubspaceRotationAdjust: set factor to 4.92
ElecMinimize: Iter:  72  G: -359.915194115255019  |grad|_K:  7.281e-07  alpha:  3.131e-02  linmin: -3.303e-08  t[s]:  10896.32
	FillingsUpdate:  mu: -0.090107566  nElectrons: 226.000000  magneticMoment: [ Abs: 1.86963  Tot: -1.65273 ]
	SubspaceRotationAdjust: set factor to 3.98
ElecMinimize: Iter:  73  G: -359.915201297498527  |grad|_K:  8.611e-07  alpha:  6.403e-02  linmin:  3.439e-07  t[s]:  11009.33
	FillingsUpdate:  mu: -0.089634254  nElectrons: 226.000000  magneticMoment: [ Abs: 1.87133  Tot: -1.65666 ]
	SubspaceRotationAdjust: set factor to 4.82
ElecMinimize: Iter:  74  G: -359.915206396154019  |grad|_K:  6.601e-07  alpha:  3.255e-02  linmin:  5.425e-07  t[s]:  11121.56
	FillingsUpdate:  mu: -0.089305183  nElectrons: 226.000000  magneticMoment: [ Abs: 1.87059  Tot: -1.65962 ]
	SubspaceRotationAdjust: set factor to 3.69
ElecMinimize: Iter:  75  G: -359.915212368072730  |grad|_K:  8.032e-07  alpha:  6.466e-02  linmin: -1.346e-06  t[s]:  11233.91
	FillingsUpdate:  mu: -0.089704426  nElectrons: 226.000000  magneticMoment: [ Abs: 1.86552  Tot: -1.65638 ]
	SubspaceRotationAdjust: set factor to 4.64
ElecMinimize: Iter:  76  G: -359.915216541048551  |grad|_K:  5.527e-07  alpha:  3.044e-02  linmin: -1.005e-07  t[s]:  11347.47
	FillingsUpdate:  mu: -0.089975459  nElectrons: 226.000000  magneticMoment: [ Abs: 1.85986  Tot: -1.65264 ]
	SubspaceRotationAdjust: set factor to 4.15
ElecMinimize: Iter:  77  G: -359.915220607330923  |grad|_K:  7.245e-07  alpha:  6.286e-02  linmin: -1.167e-08  t[s]:  11459.43
	FillingsUpdate:  mu: -0.089595058  nElectrons: 226.000000  magneticMoment: [ Abs: 1.85808  Tot: -1.65376 ]
	SubspaceRotationAdjust: set factor to 5.1
ElecMinimize: Iter:  78  G: -359.915224897164478  |grad|_K:  5.851e-07  alpha:  3.862e-02  linmin:  1.005e-08  t[s]:  11572.44
	FillingsUpdate:  mu: -0.089242428  nElectrons: 226.000000  magneticMoment: [ Abs: 1.85821  Tot: -1.65619 ]
	SubspaceRotationAdjust: set factor to 3.8
ElecMinimize: Iter:  79  G: -359.915228947917569  |grad|_K:  7.199e-07  alpha:  5.589e-02  linmin: -1.081e-07  t[s]:  11684.36
	FillingsUpdate:  mu: -0.089583714  nElectrons: 226.000000  magneticMoment: [ Abs: 1.85611  Tot: -1.65451 ]
	SubspaceRotationAdjust: set factor to 5.36
ElecMinimize: Iter:  80  G: -359.915232502900551  |grad|_K:  4.967e-07  alpha:  3.240e-02  linmin:  1.666e-08  t[s]:  11797.05
	FillingsUpdate:  mu: -0.089971825  nElectrons: 226.000000  magneticMoment: [ Abs: 1.85500  Tot: -1.65256 ]
	SubspaceRotationAdjust: set factor to 3.94
ElecMinimize: Iter:  81  G: -359.915235754760317  |grad|_K:  7.165e-07  alpha:  6.229e-02  linmin:  2.884e-07  t[s]:  11909.65
	FillingsUpdate:  mu: -0.089722530  nElectrons: 226.000000  magneticMoment: [ Abs: 1.85840  Tot: -1.65508 ]
	SubspaceRotationAdjust: set factor to 5.65
ElecMinimize: Iter:  82  G: -359.915239832303598  |grad|_K:  4.883e-07  alpha:  3.753e-02  linmin: -8.357e-09  t[s]:  12023.09
	FillingsUpdate:  mu: -0.089378367  nElectrons: 226.000000  magneticMoment: [ Abs: 1.86167  Tot: -1.65734 ]
	SubspaceRotationAdjust: set factor to 4.88
ElecMinimize: Iter:  83  G: -359.915242425908900  |grad|_K:  5.959e-07  alpha:  5.138e-02  linmin:  4.054e-08  t[s]:  12135.97
	FillingsUpdate:  mu: -0.089618151  nElectrons: 226.000000  magneticMoment: [ Abs: 1.86228  Tot: -1.65542 ]
	SubspaceRotationAdjust: set factor to 6.04
ElecMinimize: Iter:  84  G: -359.915245407411987  |grad|_K:  4.758e-07  alpha:  3.963e-02  linmin:  6.107e-08  t[s]:  12249.90
	FillingsUpdate:  mu: -0.089901774  nElectrons: 226.000000  magneticMoment: [ Abs: 1.86340  Tot: -1.65449 ]
	SubspaceRotationAdjust: set factor to 4.95
ElecMinimize: Iter:  85  G: -359.915248129706868  |grad|_K:  5.749e-07  alpha:  5.683e-02  linmin:  1.028e-07  t[s]:  12363.08
	FillingsUpdate:  mu: -0.089658715  nElectrons: 226.000000  magneticMoment: [ Abs: 1.86680  Tot: -1.65748 ]
	SubspaceRotationAdjust: set factor to 5.41
ElecMinimize: Iter:  86  G: -359.915250246763435  |grad|_K:  4.350e-07  alpha:  3.026e-02  linmin: -4.932e-08  t[s]:  12476.03
	FillingsUpdate:  mu: -0.089483218  nElectrons: 226.000000  magneticMoment: [ Abs: 1.86829  Tot: -1.65905 ]
	SubspaceRotationAdjust: set factor to 3.98
ElecMinimize: Iter:  87  G: -359.915253114053826  |grad|_K:  5.850e-07  alpha:  7.155e-02  linmin: -9.601e-08  t[s]:  12589.64
	FillingsUpdate:  mu: -0.089824267  nElectrons: 226.000000  magneticMoment: [ Abs: 1.86536  Tot: -1.65587 ]
	SubspaceRotationAdjust: set factor to 5.08
ElecMinimize: Iter:  88  G: -359.915255336372581  |grad|_K:  4.019e-07  alpha:  3.069e-02  linmin:  5.251e-07  t[s]:  12703.87
	FillingsUpdate:  mu: -0.090018447  nElectrons: 226.000000  magneticMoment: [ Abs: 1.86153  Tot: -1.65295 ]
	SubspaceRotationAdjust: set factor to 3.89
ElecMinimize: Iter:  89  G: -359.915257605253544  |grad|_K:  5.080e-07  alpha:  6.638e-02  linmin: -2.289e-07  t[s]:  12816.95
	FillingsUpdate:  mu: -0.089758168  nElectrons: 226.000000  magneticMoment: [ Abs: 1.86078  Tot: -1.65416 ]
	SubspaceRotationAdjust: set factor to 4.92
ElecMinimize: Iter:  90  G: -359.915259364354540  |grad|_K:  3.620e-07  alpha:  3.220e-02  linmin:  3.428e-08  t[s]:  12930.59
	FillingsUpdate:  mu: -0.089594836  nElectrons: 226.000000  magneticMoment: [ Abs: 1.85974  Tot: -1.65563 ]
	SubspaceRotationAdjust: set factor to 4.37
ElecMinimize: Iter:  91  G: -359.915261077690843  |grad|_K:  4.386e-07  alpha:  6.175e-02  linmin: -1.854e-07  t[s]:  13043.54
	FillingsUpdate:  mu: -0.089851769  nElectrons: 226.000000  magneticMoment: [ Abs: 1.85656  Tot: -1.65404 ]
	SubspaceRotationAdjust: set factor to 4.81
ElecMinimize: Iter:  92  G: -359.915262479926696  |grad|_K:  3.532e-07  alpha:  3.443e-02  linmin:  6.495e-08  t[s]:  13156.82
	FillingsUpdate:  mu: -0.090047294  nElectrons: 226.000000  magneticMoment: [ Abs: 1.85262  Tot: -1.65200 ]
	SubspaceRotationAdjust: set factor to 3.79
ElecMinimize: Iter:  93  G: -359.915264249965333  |grad|_K:  4.582e-07  alpha:  6.703e-02  linmin: -1.070e-07  t[s]:  13269.58
	FillingsUpdate:  mu: -0.089800019  nElectrons: 226.000000  magneticMoment: [ Abs: 1.85181  Tot: -1.65297 ]
	SubspaceRotationAdjust: set factor to 4.92
ElecMinimize: Iter:  94  G: -359.915265681076619  |grad|_K:  3.107e-07  alpha:  3.215e-02  linmin: -2.038e-07  t[s]:  13383.75
	FillingsUpdate:  mu: -0.089528850  nElectrons: 226.000000  magneticMoment: [ Abs: 1.85205  Tot: -1.65421 ]
	SubspaceRotationAdjust: set factor to 3.48
ElecMinimize: Iter:  95  G: -359.915267016413054  |grad|_K:  4.471e-07  alpha:  6.534e-02  linmin:  3.203e-07  t[s]:  13497.06
	FillingsUpdate:  mu: -0.089669955  nElectrons: 226.000000  magneticMoment: [ Abs: 1.85076  Tot: -1.65290 ]
	SubspaceRotationAdjust: set factor to 4.3
ElecMinimize: Iter:  96  G: -359.915268639415842  |grad|_K:  3.021e-07  alpha:  3.836e-02  linmin: -8.432e-08  t[s]:  13610.45
	FillingsUpdate:  mu: -0.089862615  nElectrons: 226.000000  magneticMoment: [ Abs: 1.85055  Tot: -1.65200 ]
	SubspaceRotationAdjust: set factor to 3.73
ElecMinimize: Iter:  97  G: -359.915269717410411  |grad|_K:  3.505e-07  alpha:  5.578e-02  linmin:  1.309e-08  t[s]:  13723.37
	FillingsUpdate:  mu: -0.089720408  nElectrons: 226.000000  magneticMoment: [ Abs: 1.85311  Tot: -1.65379 ]
	SubspaceRotationAdjust: set factor to 5.14
ElecMinimize: Iter:  98  G: -359.915270922067236  |grad|_K:  2.716e-07  alpha:  4.632e-02  linmin:  4.326e-08  t[s]:  13836.47
	FillingsUpdate:  mu: -0.089508850  nElectrons: 226.000000  magneticMoment: [ Abs: 1.85555  Tot: -1.65523 ]
	SubspaceRotationAdjust: set factor to 4.35
ElecMinimize: Iter:  99  G: -359.915271819607995  |grad|_K:  3.351e-07  alpha:  5.748e-02  linmin:  9.077e-08  t[s]:  13949.78
	FillingsUpdate:  mu: -0.089624870  nElectrons: 226.000000  magneticMoment: [ Abs: 1.85599  Tot: -1.65372 ]
	SubspaceRotationAdjust: set factor to 5.52
ElecMinimize: Iter: 100  G: -359.915272773555841  |grad|_K:  2.498e-07  alpha:  4.014e-02  linmin:  2.169e-08  t[s]:  14062.83
ElecMinimize: None of the convergence criteria satisfied after 100 iterations.
Setting wave functions to eigenvectors of Hamiltonian
Converging empty states (this may take a while): |deigs|: 3.909e-03
Vacuum energy after initial minimize, F = -359.915272773555841

Shifting auxilliary hamiltonian by -0.037575 to set nElectrons=226.000000

-------- Electronic minimization -----------
	Linear fluid (dielectric constant: 78.4, screening length: 8.12261 Bohr) occupying 0.711864 of unit cell:	Completed after 23 iterations at t[s]:  14638.33
	FillingsUpdate:  mu: -0.127200000  nElectrons: 226.000000  magneticMoment: [ Abs: 1.85578  Tot: -1.65239 ]
ElecMinimize: Iter:   0  G: -359.914045064470372  |grad|_K:  3.991e-05  alpha:  1.000e+00
	Linear fluid (dielectric constant: 78.4, screening length: 8.12261 Bohr) occupying 0.791379 of unit cell:	Completed after 26 iterations at t[s]:  14751.79
	Linear fluid (dielectric constant: 78.4, screening length: 8.12261 Bohr) occupying 0.712563 of unit cell:	Completed after 26 iterations at t[s]:  14804.94
	FillingsUpdate:  mu: -0.127200000  nElectrons: 226.297667  magneticMoment: [ Abs: 2.02328  Tot: -1.86634 ]
	SubspaceRotationAdjust: set factor to 2.91
ElecMinimize: Iter:   1  G: -359.917611930998532  |grad|_K:  1.707e-05  alpha:  2.074e-02  linmin: -8.097e-04  t[s]:  14854.75
	Linear fluid (dielectric constant: 78.4, screening length: 8.12261 Bohr) occupying 0.712676 of unit cell:	Completed after 14 iterations at t[s]:  14905.18
	Linear fluid (dielectric constant: 78.4, screening length: 8.12261 Bohr) occupying 0.712751 of unit cell:	Completed after 12 iterations at t[s]:  14948.84
	FillingsUpdate:  mu: -0.127200000  nElectrons: 226.363923  magneticMoment: [ Abs: 2.03921  Tot: -1.91968 ]
	SubspaceRotationAdjust: set factor to 1.55
ElecMinimize: Iter:   2  G: -359.919941925099693  |grad|_K:  6.348e-06  alpha:  3.634e-02  linmin: -3.770e-05  t[s]:  14998.35
	Linear fluid (dielectric constant: 78.4, screening length: 8.12261 Bohr) occupying 0.712918 of unit cell:	Completed after 12 iterations at t[s]:  15047.25
	Linear fluid (dielectric constant: 78.4, screening length: 8.12261 Bohr) occupying 0.713068 of unit cell:	Completed after 11 iterations at t[s]:  15090.18
	FillingsUpdate:  mu: -0.127200000  nElectrons: 226.438737  magneticMoment: [ Abs: 2.08041  Tot: -1.97960 ]
	SubspaceRotationAdjust: set factor to 2.6
ElecMinimize: Iter:   3  G: -359.920927511334241  |grad|_K:  3.437e-06  alpha:  9.162e-02  linmin: -1.071e-03  t[s]:  15139.96
	Linear fluid (dielectric constant: 78.4, screening length: 8.12261 Bohr) occupying 0.713148 of unit cell:	Completed after 11 iterations at t[s]:  15188.77
ElecMinimize: 	Predicted alpha/alphaT>3.000000, increasing alphaT to 2.748611e-01.
	Linear fluid (dielectric constant: 78.4, screening length: 8.12261 Bohr) occupying 0.713524 of unit cell:	Completed after 13 iterations at t[s]:  15232.97
	Linear fluid (dielectric constant: 78.4, screening length: 8.12261 Bohr) occupying 0.713686 of unit cell:	Completed after 11 iterations at t[s]:  15275.49
	FillingsUpdate:  mu: -0.127200000  nElectrons: 226.574250  magneticMoment: [ Abs: 2.02663  Tot: -1.88140 ]
	SubspaceRotationAdjust: set factor to 1.52
ElecMinimize: Iter:   4  G: -359.921945185287086  |grad|_K:  5.799e-06  alpha:  3.082e-01  linmin:  1.388e-03  t[s]:  15325.55
	Linear fluid (dielectric constant: 78.4, screening length: 8.12261 Bohr) occupying 0.723186 of unit cell:	Completed after 19 iterations at t[s]:  15379.17
	Linear fluid (dielectric constant: 78.4, screening length: 8.12261 Bohr) occupying 0.713946 of unit cell:	Completed after 18 iterations at t[s]:  15426.39
	FillingsUpdate:  mu: -0.127200000  nElectrons: 226.618214  magneticMoment: [ Abs: 2.01013  Tot: -1.84472 ]
	SubspaceRotationAdjust: set factor to 0.913
ElecMinimize: Iter:   5  G: -359.921999887362347  |grad|_K:  5.202e-06  alpha:  2.079e-02  linmin:  1.001e-04  t[s]:  15476.40
	Linear fluid (dielectric constant: 78.4, screening length: 8.12261 Bohr) occupying 0.714077 of unit cell:	Completed after 9 iterations at t[s]:  15523.61
ElecMinimize: 	Predicted alpha/alphaT>3.000000, increasing alphaT to 6.236108e-02.
	Linear fluid (dielectric constant: 78.4, screening length: 8.12261 Bohr) occupying 0.714392 of unit cell:	Completed after 12 iterations at t[s]:  15566.92
	Linear fluid (dielectric constant: 78.4, screening length: 8.12261 Bohr) occupying 0.714404 of unit cell:	Completed after 2 iterations at t[s]:  15604.39
	FillingsUpdate:  mu: -0.127200000  nElectrons: 226.682192  magneticMoment: [ Abs: 1.99444  Tot: -1.79602 ]
	SubspaceRotationAdjust: set factor to 0.571
	SubspaceRotationAdjust: resetting CG because factor has changed by 0.103609
	Linear fluid (dielectric constant: 78.4, screening length: 8.12261 Bohr) occupying 0.714404 of unit cell:	Completed after 0 iterations at t[s]:  15676.22
ElecMinimize: 	State modified externally: resetting search direction.
ElecMinimize: Iter:   6  G: -359.922351565444785  |grad|_K:  3.060e-06  alpha:  6.372e-02
	Linear fluid (dielectric constant: 78.4, screening length: 8.12261 Bohr) occupying 0.714226 of unit cell:	Completed after 11 iterations at t[s]:  15774.00
ElecMinimize: 	Predicted alpha/alphaT>3.000000, increasing alphaT to 1.911656e-01.
	Linear fluid (dielectric constant: 78.4, screening length: 8.12261 Bohr) occupying 0.713944 of unit cell:	Completed after 11 iterations at t[s]:  15816.55
	Linear fluid (dielectric constant: 78.4, screening length: 8.12261 Bohr) occupying 0.713741 of unit cell:	Completed after 11 iterations at t[s]:  15859.56
	FillingsUpdate:  mu: -0.127200000  nElectrons: 226.570558  magneticMoment: [ Abs: 2.03275  Tot: -1.88460 ]
	SubspaceRotationAdjust: set factor to 0.314
ElecMinimize: Iter:   7  G: -359.923038546127827  |grad|_K:  1.437e-06  alpha:  3.173e-01  linmin: -3.613e-03  t[s]:  15909.58
	Linear fluid (dielectric constant: 78.4, screening length: 8.12261 Bohr) occupying 0.713673 of unit cell:	Completed after 12 iterations at t[s]:  15958.51
	Linear fluid (dielectric constant: 78.4, screening length: 8.12261 Bohr) occupying 0.713644 of unit cell:	Completed after 10 iterations at t[s]:  16001.34
	FillingsUpdate:  mu: -0.127200000  nElectrons: 226.548076  magneticMoment: [ Abs: 2.04128  Tot: -1.90084 ]
	SubspaceRotationAdjust: set factor to 0.22
ElecMinimize: Iter:   8  G: -359.923313508417266  |grad|_K:  1.088e-06  alpha:  5.174e-01  linmin: -1.416e-04  t[s]:  16050.84
	Linear fluid (dielectric constant: 78.4, screening length: 8.12261 Bohr) occupying 0.713585 of unit cell:	Completed after 10 iterations at t[s]:  16098.53
	Linear fluid (dielectric constant: 78.4, screening length: 8.12261 Bohr) occupying 0.713575 of unit cell:	Completed after 3 iterations at t[s]:  16136.93
	FillingsUpdate:  mu: -0.127200000  nElectrons: 226.532901  magneticMoment: [ Abs: 2.04823  Tot: -1.91376 ]
	SubspaceRotationAdjust: set factor to 0.255
ElecMinimize: Iter:   9  G: -359.923473141612760  |grad|_K:  6.685e-07  alpha:  6.191e-01  linmin: -7.065e-05  t[s]:  16186.45
	Linear fluid (dielectric constant: 78.4, screening length: 8.12261 Bohr) occupying 0.713613 of unit cell:	Completed after 7 iterations at t[s]:  16232.20
	Linear fluid (dielectric constant: 78.4, screening length: 8.12261 Bohr) occupying 0.713612 of unit cell:	Completed after 0 iterations at t[s]:  16267.39
	FillingsUpdate:  mu: -0.127200000  nElectrons: 226.535597  magneticMoment: [ Abs: 2.04640  Tot: -1.91098 ]
	SubspaceRotationAdjust: set factor to 0.31
ElecMinimize: Iter:  10  G: -359.923531002331856  |grad|_K:  3.838e-07  alpha:  6.049e-01  linmin:  9.803e-05  t[s]:  16317.25
	Linear fluid (dielectric constant: 78.4, screening length: 8.12261 Bohr) occupying 0.713711 of unit cell:	Completed after 9 iterations at t[s]:  16364.13
	Linear fluid (dielectric constant: 78.4, screening length: 8.12261 Bohr) occupying 0.713764 of unit cell:	Completed after 6 iterations at t[s]:  16403.95
	FillingsUpdate:  mu: -0.127200000  nElectrons: 226.556854  magneticMoment: [ Abs: 2.03450  Tot: -1.89085 ]
	SubspaceRotationAdjust: set factor to 0.428
ElecMinimize: Iter:  11  G: -359.923558701430522  |grad|_K:  2.544e-07  alpha:  9.049e-01  linmin:  2.486e-04  t[s]:  16453.77
	Linear fluid (dielectric constant: 78.4, screening length: 8.12261 Bohr) occupying 0.713876 of unit cell:	Completed after 10 iterations at t[s]:  16502.01
	Linear fluid (dielectric constant: 78.4, screening length: 8.12261 Bohr) occupying 0.713843 of unit cell:	Completed after 7 iterations at t[s]:  16542.12
	FillingsUpdate:  mu: -0.127200000  nElectrons: 226.571078  magneticMoment: [ Abs: 2.02626  Tot: -1.87747 ]
	SubspaceRotationAdjust: set factor to 0.418
ElecMinimize: Iter:  12  G: -359.923567387788637  |grad|_K:  1.988e-07  alpha:  6.509e-01  linmin:  4.519e-06  t[s]:  16591.79
	Linear fluid (dielectric constant: 78.4, screening length: 8.12261 Bohr) occupying 0.713848 of unit cell:	Completed after 3 iterations at t[s]:  16635.46
	Linear fluid (dielectric constant: 78.4, screening length: 8.12261 Bohr) occupying 0.713848 of unit cell:	Completed after 0 iterations at t[s]:  16671.34
	FillingsUpdate:  mu: -0.127200000  nElectrons: 226.575614  magneticMoment: [ Abs: 2.02268  Tot: -1.87333 ]
	SubspaceRotationAdjust: set factor to 0.466
ElecMinimize: Iter:  13  G: -359.923572419684092  |grad|_K:  1.344e-07  alpha:  6.022e-01  linmin:  9.638e-05  t[s]:  16720.65
	Linear fluid (dielectric constant: 78.4, screening length: 8.12261 Bohr) occupying 0.713832 of unit cell:	Completed after 3 iterations at t[s]:  16764.14
	Linear fluid (dielectric constant: 78.4, screening length: 8.12261 Bohr) occupying 0.713833 of unit cell:	Completed after 0 iterations at t[s]:  16799.17
	FillingsUpdate:  mu: -0.127200000  nElectrons: 226.576857  magneticMoment: [ Abs: 2.02090  Tot: -1.87213 ]
	SubspaceRotationAdjust: set factor to 0.471
ElecMinimize: Iter:  14  G: -359.923574652754326  |grad|_K:  9.781e-08  alpha:  5.915e-01  linmin: -3.102e-05  t[s]:  16848.94
	Linear fluid (dielectric constant: 78.4, screening length: 8.12261 Bohr) occupying 0.713814 of unit cell:	Completed after 2 iterations at t[s]:  16891.50
	Linear fluid (dielectric constant: 78.4, screening length: 8.12261 Bohr) occupying 0.713815 of unit cell:	Completed after 0 iterations at t[s]:  16926.45
	FillingsUpdate:  mu: -0.127200000  nElectrons: 226.576695  magneticMoment: [ Abs: 2.02005  Tot: -1.87221 ]
	SubspaceRotationAdjust: set factor to 0.471
ElecMinimize: Iter:  15  G: -359.923575791888140  |grad|_K:  6.866e-08  alpha:  5.602e-01  linmin: -1.285e-06  t[s]:  16975.83
	Linear fluid (dielectric constant: 78.4, screening length: 8.12261 Bohr) occupying 0.713809 of unit cell:	Completed after 2 iterations at t[s]:  17018.23
	Linear fluid (dielectric constant: 78.4, screening length: 8.12261 Bohr) occupying 0.713810 of unit cell:	Completed after 0 iterations at t[s]:  17053.22
	FillingsUpdate:  mu: -0.127200000  nElectrons: 226.577104  magneticMoment: [ Abs: 2.01924  Tot: -1.87172 ]
	SubspaceRotationAdjust: set factor to 0.38
ElecMinimize: Iter:  16  G: -359.923576278477071  |grad|_K:  5.004e-08  alpha:  4.866e-01  linmin:  1.691e-04  t[s]:  17102.27
	Linear fluid (dielectric constant: 78.4, screening length: 8.12261 Bohr) occupying 0.713802 of unit cell:	Completed after 1 iterations at t[s]:  17144.73
	Linear fluid (dielectric constant: 78.4, screening length: 8.12261 Bohr) occupying 0.713802 of unit cell:	Completed after 0 iterations at t[s]:  17180.20
	FillingsUpdate:  mu: -0.127200000  nElectrons: 226.576226  magneticMoment: [ Abs: 2.01921  Tot: -1.87249 ]
	SubspaceRotationAdjust: set factor to 0.393
ElecMinimize: Iter:  17  G: -359.923576544843797  |grad|_K:  2.779e-08  alpha:  5.154e-01  linmin: -5.060e-04  t[s]:  17229.50
	Linear fluid (dielectric constant: 78.4, screening length: 8.12261 Bohr) occupying 0.713801 of unit cell:	Completed after 0 iterations at t[s]:  17270.66
	Linear fluid (dielectric constant: 78.4, screening length: 8.12261 Bohr) occupying 0.713800 of unit cell:	Completed after 0 iterations at t[s]:  17306.35
	FillingsUpdate:  mu: -0.127200000  nElectrons: 226.575610  magneticMoment: [ Abs: 2.01922  Tot: -1.87304 ]
	SubspaceRotationAdjust: set factor to 0.434
ElecMinimize: Iter:  18  G: -359.923576670168131  |grad|_K:  1.872e-08  alpha:  7.078e-01  linmin: -8.323e-04  t[s]:  17356.20
	Linear fluid (dielectric constant: 78.4, screening length: 8.12261 Bohr) occupying 0.713801 of unit cell:	Completed after 0 iterations at t[s]:  17396.56
	Linear fluid (dielectric constant: 78.4, screening length: 8.12261 Bohr) occupying 0.713801 of unit cell:	Completed after 0 iterations at t[s]:  17431.63
	FillingsUpdate:  mu: -0.127200000  nElectrons: 226.575225  magneticMoment: [ Abs: 2.01923  Tot: -1.87339 ]
	SubspaceRotationAdjust: set factor to 0.497
ElecMinimize: Iter:  19  G: -359.923576733237894  |grad|_K:  1.499e-08  alpha:  7.478e-01  linmin:  7.058e-07  t[s]:  17481.87
	Linear fluid (dielectric constant: 78.4, screening length: 8.12261 Bohr) occupying 0.713801 of unit cell:	Completed after 2 iterations at t[s]:  17524.43
	Linear fluid (dielectric constant: 78.4, screening length: 8.12261 Bohr) occupying 0.713801 of unit cell:	Completed after 0 iterations at t[s]:  17559.34
ElecMinimize: 	Step increased G by 1.559755e-08, reducing alpha to 2.731730e-02.
	Linear fluid (dielectric constant: 78.4, screening length: 8.12261 Bohr) occupying 0.713801 of unit cell:	Completed after 0 iterations at t[s]:  17641.27
ElecMinimize: 	Step increased G by 2.411610e-08, reducing alpha to 2.731730e-03.
	Linear fluid (dielectric constant: 78.4, screening length: 8.12261 Bohr) occupying 0.713801 of unit cell:	Completed after 0 iterations at t[s]:  17722.31
ElecMinimize: 	Step increased G by 2.552702e-08, reducing alpha to 2.731730e-04.
ElecMinimize: 	Step failed to reduce G after 3 attempts. Quitting step.
ElecMinimize: 	Undoing step.
	Linear fluid (dielectric constant: 78.4, screening length: 8.12261 Bohr) occupying 0.713801 of unit cell:	Completed after 0 iterations at t[s]:  17804.21
ElecMinimize: 	Step failed: resetting search direction.
	FillingsUpdate:  mu: -0.127200000  nElectrons: 226.575224  magneticMoment: [ Abs: 2.01923  Tot: -1.87339 ]
	SubspaceRotationAdjust: set factor to 0.503
ElecMinimize: Iter:  20  G: -359.923576707681320  |grad|_K:  2.242e-08  alpha:  2.732e-04
	Linear fluid (dielectric constant: 78.4, screening length: 8.12261 Bohr) occupying 0.713806 of unit cell:	Completed after 1 iterations at t[s]:  17896.29
	Linear fluid (dielectric constant: 78.4, screening length: 8.12261 Bohr) occupying 0.713804 of unit cell:	Completed after 0 iterations at t[s]:  17931.38
	FillingsUpdate:  mu: -0.127200000  nElectrons: 226.575556  magneticMoment: [ Abs: 2.01907  Tot: -1.87309 ]
	SubspaceRotationAdjust: set factor to 0.489
ElecMinimize: Iter:  21  G: -359.923576745306320  |grad|_K:  1.723e-08  alpha:  3.768e-01  linmin:  2.697e-03  t[s]:  17981.02
	Linear fluid (dielectric constant: 78.4, screening length: 8.12261 Bohr) occupying 0.713805 of unit cell:	Completed after 0 iterations at t[s]:  18021.71
	Linear fluid (dielectric constant: 78.4, screening length: 8.12261 Bohr) occupying 0.713808 of unit cell:	Completed after 2 iterations at t[s]:  18058.47
ElecMinimize: 	Step increased G by 6.722536e-08, reducing alpha to 1.097229e-01.
[...]
disp C   0.000000000000000   0.000000000000000   0.000000000000000
disp C   0.000000000000000   0.000000000000000   0.000000000000000
disp C   0.000000000000000   0.000000000000000   0.000000000000000
disp C   0.000000000000000   0.000000000000000   0.000000000000000
disp C   0.000000000000000   0.000000000000000   0.000000000000000
disp C   0.000149367256409   0.000235456078203   0.000658324600128
disp N   0.000000000000000   0.000000000000000   0.000000000000000
disp N   0.000000000000000   0.000000000000000   0.000000000000000
disp N   0.000000000000000   0.000000000000000   0.000000000000000
disp N   0.000000000000000   0.000000000000000   0.000000000000000
disp Ti   0.000000000000000   0.000000000000000   0.000000000000000
disp O   0.000013569916500  -0.000066245638986   0.000673847400122
disp O   0.003578851160627  -0.000233555886692  -0.001172266811034
disp H  -0.005526833757775   0.012997388400030   0.008720202951218
disp H   0.002077839946866   0.004863376698358   0.001187234125425

Real mode 7:
Frequency: 0.007088 Eh [ 1556 cm^-1 ]
Degeneracy: 1 of 1
IR intensity: 0.2323 e^2/amu [ 226.4 km/mol ]
Displacements:
disp C   0.000000000000000   0.000000000000000   0.000000000000000
disp C   0.000000000000000   0.000000000000000   0.000000000000000
disp C   0.000000000000000   0.000000000000000   0.000000000000000
disp C   0.000000000000000   0.000000000000000   0.000000000000000
disp C   0.000000000000000   0.000000000000000   0.000000000000000
disp C   0.000000000000000   0.000000000000000   0.000000000000000
disp C   0.000000000000000   0.000000000000000   0.000000000000000
disp C   0.000000000000000   0.000000000000000   0.000000000000000
disp C   0.000000000000000   0.000000000000000   0.000000000000000
disp C   0.000000000000000   0.000000000000000   0.000000000000000
disp C   0.000000000000000   0.000000000000000   0.000000000000000
disp C   0.000000000000000   0.000000000000000   0.000000000000000
disp C   0.000000000000000   0.000000000000000   0.000000000000000
disp C   0.000000000000000   0.000000000000000   0.000000000000000
disp C   0.000000000000000   0.000000000000000   0.000000000000000
disp C   0.000000000000000   0.000000000000000   0.000000000000000
disp C   0.000000000000000   0.000000000000000   0.000000000000000
disp C   0.000000000000000   0.000000000000000   0.000000000000000
disp C   0.000000000000000   0.000000000000000   0.000000000000000
disp C   0.000000000000000   0.000000000000000   0.000000000000000
disp C   0.000000000000000   0.000000000000000   0.000000000000000
disp C   0.000000000000000   0.000000000000000   0.000000000000000
disp C   0.000000000000000   0.000000000000000   0.000000000000000
disp C   0.000000000000000   0.000000000000000   0.000000000000000
disp C   0.000000000000000   0.000000000000000   0.000000000000000
disp C   0.000000000000000   0.000000000000000   0.000000000000000
disp C   0.000000000000000   0.000000000000000   0.000000000000000
disp C   0.000000000000000   0.000000000000000   0.000000000000000
disp C   0.000000000000000   0.000000000000000   0.000000000000000
disp C   0.000000000000000   0.000000000000000   0.000000000000000
disp C   0.000000000000000   0.000000000000000   0.000000000000000
disp C   0.000000000000000   0.000000000000000   0.000000000000000
disp C   0.000000000000000   0.000000000000000   0.000000000000000
disp C   0.000000000000000   0.000000000000000   0.000000000000000
disp C   0.000000000000000   0.000000000000000   0.000000000000000
disp C   0.000000000000000   0.000000000000000   0.000000000000000
disp C   0.000000000000000   0.000000000000000   0.000000000000000
disp C   0.000000000000000   0.000000000000000   0.000000000000000
disp C   0.000000000000000   0.000000000000000   0.000000000000000
disp C   0.000000000000000   0.000000000000000   0.000000000000000
disp C   0.000000000000000   0.000000000000000   0.000000000000000
disp C   0.000000000000000   0.000000000000000   0.000000000000000
disp C   0.000000000000000   0.000000000000000   0.000000000000000
disp C   0.000000000000000   0.000000000000000   0.000000000000000
disp C  -0.000013970296844   0.000021614254673  -0.000083932908011
disp N   0.000000000000000   0.000000000000000   0.000000000000000
disp N   0.000000000000000   0.000000000000000   0.000000000000000
disp N   0.000000000000000   0.000000000000000   0.000000000000000
disp N   0.000000000000000   0.000000000000000   0.000000000000000
disp Ti   0.000000000000000   0.000000000000000   0.000000000000000
disp O  -0.000003732302815  -0.000005385683275   0.000074907629174
disp O  -0.000628307701548  -0.001226113179335   0.000906450493293
disp H  -0.001925129666245   0.006820024519313  -0.014024761967351
disp H   0.012767509862460   0.009442414674119  -0.001350413879003

Real mode 8:
Frequency: 0.007719 Eh [ 1694 cm^-1 ]
Degeneracy: 1 of 1
IR intensity: 28.1193 e^2/amu [ 27412.9 km/mol ]
Displacements:
disp C   0.000000000000000   0.000000000000000   0.000000000000000
disp C   0.000000000000000   0.000000000000000   0.000000000000000
disp C   0.000000000000000   0.000000000000000   0.000000000000000
disp C   0.000000000000000   0.000000000000000   0.000000000000000
disp C   0.000000000000000   0.000000000000000   0.000000000000000
disp C   0.000000000000000   0.000000000000000   0.000000000000000
disp C   0.000000000000000   0.000000000000000   0.000000000000000
disp C   0.000000000000000   0.000000000000000   0.000000000000000
disp C   0.000000000000000   0.000000000000000   0.000000000000000
disp C   0.000000000000000   0.000000000000000   0.000000000000000
disp C   0.000000000000000   0.000000000000000   0.000000000000000
disp C   0.000000000000000   0.000000000000000   0.000000000000000
disp C   0.000000000000000   0.000000000000000   0.000000000000000
disp C   0.000000000000000   0.000000000000000   0.000000000000000
disp C   0.000000000000000   0.000000000000000   0.000000000000000
disp C   0.000000000000000   0.000000000000000   0.000000000000000
disp C   0.000000000000000   0.000000000000000   0.000000000000000
disp C   0.000000000000000   0.000000000000000   0.000000000000000
disp C   0.000000000000000   0.000000000000000   0.000000000000000
disp C   0.000000000000000   0.000000000000000   0.000000000000000
disp C   0.000000000000000   0.000000000000000   0.000000000000000
disp C   0.000000000000000   0.000000000000000   0.000000000000000
disp C   0.000000000000000   0.000000000000000   0.000000000000000
disp C   0.000000000000000   0.000000000000000   0.000000000000000
disp C   0.000000000000000   0.000000000000000   0.000000000000000
disp C   0.000000000000000   0.000000000000000   0.000000000000000
disp C   0.000000000000000   0.000000000000000   0.000000000000000
disp C   0.000000000000000   0.000000000000000   0.000000000000000
disp C   0.000000000000000   0.000000000000000   0.000000000000000
disp C   0.000000000000000   0.000000000000000   0.000000000000000
disp C   0.000000000000000   0.000000000000000   0.000000000000000
disp C   0.000000000000000   0.000000000000000   0.000000000000000
disp C   0.000000000000000   0.000000000000000   0.000000000000000
disp C   0.000000000000000   0.000000000000000   0.000000000000000
disp C   0.000000000000000   0.000000000000000   0.000000000000000
disp C   0.000000000000000   0.000000000000000   0.000000000000000
disp C   0.000000000000000   0.000000000000000   0.000000000000000
disp C   0.000000000000000   0.000000000000000   0.000000000000000
disp C   0.000000000000000   0.000000000000000   0.000000000000000
disp C   0.000000000000000   0.000000000000000   0.000000000000000
disp C   0.000000000000000   0.000000000000000   0.000000000000000
disp C   0.000000000000000   0.000000000000000   0.000000000000000
disp C   0.000000000000000   0.000000000000000   0.000000000000000
disp C   0.000000000000000   0.000000000000000   0.000000000000000
disp C  -0.000010330146484   0.000301634018873  -0.005225436572916
disp N   0.000000000000000   0.000000000000000   0.000000000000000
disp N   0.000000000000000   0.000000000000000   0.000000000000000
disp N   0.000000000000000   0.000000000000000   0.000000000000000
disp N   0.000000000000000   0.000000000000000   0.000000000000000
disp Ti   0.000000000000000   0.000000000000000   0.000000000000000
disp O  -0.000008535637503  -0.000226238030335   0.003695637173208
disp O   0.000008946989507   0.000021558248240  -0.000021411787916
disp H   0.000013414007285  -0.000051847158389   0.000228697864965
disp H  -0.000237321103672  -0.000242343470936  -0.000001622999022

Real mode 9:
Frequency: 0.017024 Eh [ 3736 cm^-1 ]
Degeneracy: 1 of 1
IR intensity: 0.2332 e^2/amu [ 227.3 km/mol ]
Displacements:
disp C   0.000000000000000   0.000000000000000   0.000000000000000
disp C   0.000000000000000   0.000000000000000   0.000000000000000
disp C   0.000000000000000   0.000000000000000   0.000000000000000
disp C   0.000000000000000   0.000000000000000   0.000000000000000
disp C   0.000000000000000   0.000000000000000   0.000000000000000
disp C   0.000000000000000   0.000000000000000   0.000000000000000
disp C   0.000000000000000   0.000000000000000   0.000000000000000
disp C   0.000000000000000   0.000000000000000   0.000000000000000
disp C   0.000000000000000   0.000000000000000   0.000000000000000
disp C   0.000000000000000   0.000000000000000   0.000000000000000
disp C   0.000000000000000   0.000000000000000   0.000000000000000
disp C   0.000000000000000   0.000000000000000   0.000000000000000
disp C   0.000000000000000   0.000000000000000   0.000000000000000
disp C   0.000000000000000   0.000000000000000   0.000000000000000
disp C   0.000000000000000   0.000000000000000   0.000000000000000
disp C   0.000000000000000   0.000000000000000   0.000000000000000
disp C   0.000000000000000   0.000000000000000   0.000000000000000
disp C   0.000000000000000   0.000000000000000   0.000000000000000
disp C   0.000000000000000   0.000000000000000   0.000000000000000
disp C   0.000000000000000   0.000000000000000   0.000000000000000
disp C   0.000000000000000   0.000000000000000   0.000000000000000
disp C   0.000000000000000   0.000000000000000   0.000000000000000
disp C   0.000000000000000   0.000000000000000   0.000000000000000
disp C   0.000000000000000   0.000000000000000   0.000000000000000
disp C   0.000000000000000   0.000000000000000   0.000000000000000
disp C   0.000000000000000   0.000000000000000   0.000000000000000
disp C   0.000000000000000   0.000000000000000   0.000000000000000
disp C   0.000000000000000   0.000000000000000   0.000000000000000
disp C   0.000000000000000   0.000000000000000   0.000000000000000
disp C   0.000000000000000   0.000000000000000   0.000000000000000
disp C   0.000000000000000   0.000000000000000   0.000000000000000
disp C   0.000000000000000   0.000000000000000   0.000000000000000
disp C   0.000000000000000   0.000000000000000   0.000000000000000
disp C   0.000000000000000   0.000000000000000   0.000000000000000
disp C   0.000000000000000   0.000000000000000   0.000000000000000
disp C   0.000000000000000   0.000000000000000   0.000000000000000
disp C   0.000000000000000   0.000000000000000   0.000000000000000
disp C   0.000000000000000   0.000000000000000   0.000000000000000
disp C   0.000000000000000   0.000000000000000   0.000000000000000
disp C   0.000000000000000   0.000000000000000   0.000000000000000
disp C   0.000000000000000   0.000000000000000   0.000000000000000
disp C   0.000000000000000   0.000000000000000   0.000000000000000
disp C   0.000000000000000   0.000000000000000   0.000000000000000
disp C   0.000000000000000   0.000000000000000   0.000000000000000
disp C   0.000000788623774   0.000002077439214   0.000001364549908
disp N   0.000000000000000   0.000000000000000   0.000000000000000
disp N   0.000000000000000   0.000000000000000   0.000000000000000
disp N   0.000000000000000   0.000000000000000   0.000000000000000
disp N   0.000000000000000   0.000000000000000   0.000000000000000
disp Ti   0.000000000000000   0.000000000000000   0.000000000000000
disp O   0.000001259930904   0.000002023836795   0.000005769979150
disp O   0.000611015756719   0.000784714309964  -0.000603315882873
disp H  -0.015145865032573  -0.008217697927030  -0.003103285545133
disp H   0.005428910900714  -0.004054535657087   0.013050247698536

Real mode 10:
Frequency: 0.017370 Eh [ 3812 cm^-1 ]
Degeneracy: 1 of 1
IR intensity: 0.4495 e^2/amu [ 438.2 km/mol ]
Displacements:
disp C   0.000000000000000   0.000000000000000   0.000000000000000
disp C   0.000000000000000   0.000000000000000   0.000000000000000
disp C   0.000000000000000   0.000000000000000   0.000000000000000
disp C   0.000000000000000   0.000000000000000   0.000000000000000
disp C   0.000000000000000   0.000000000000000   0.000000000000000
disp C   0.000000000000000   0.000000000000000   0.000000000000000
disp C   0.000000000000000   0.000000000000000   0.000000000000000
disp C   0.000000000000000   0.000000000000000   0.000000000000000
disp C   0.000000000000000   0.000000000000000   0.000000000000000
disp C   0.000000000000000   0.000000000000000   0.000000000000000
disp C   0.000000000000000   0.000000000000000   0.000000000000000
disp C   0.000000000000000   0.000000000000000   0.000000000000000
disp C   0.000000000000000   0.000000000000000   0.000000000000000
disp C   0.000000000000000   0.000000000000000   0.000000000000000
disp C   0.000000000000000   0.000000000000000   0.000000000000000
disp C   0.000000000000000   0.000000000000000   0.000000000000000
disp C   0.000000000000000   0.000000000000000   0.000000000000000
disp C   0.000000000000000   0.000000000000000   0.000000000000000
disp C   0.000000000000000   0.000000000000000   0.000000000000000
disp C   0.000000000000000   0.000000000000000   0.000000000000000
disp C   0.000000000000000   0.000000000000000   0.000000000000000
disp C   0.000000000000000   0.000000000000000   0.000000000000000
disp C   0.000000000000000   0.000000000000000   0.000000000000000
disp C   0.000000000000000   0.000000000000000   0.000000000000000
disp C   0.000000000000000   0.000000000000000   0.000000000000000
disp C   0.000000000000000   0.000000000000000   0.000000000000000
disp C   0.000000000000000   0.000000000000000   0.000000000000000
disp C   0.000000000000000   0.000000000000000   0.000000000000000
disp C   0.000000000000000   0.000000000000000   0.000000000000000
disp C   0.000000000000000   0.000000000000000   0.000000000000000
disp C   0.000000000000000   0.000000000000000   0.000000000000000
disp C   0.000000000000000   0.000000000000000   0.000000000000000
disp C   0.000000000000000   0.000000000000000   0.000000000000000
disp C   0.000000000000000   0.000000000000000   0.000000000000000
disp C   0.000000000000000   0.000000000000000   0.000000000000000
disp C   0.000000000000000   0.000000000000000   0.000000000000000
disp C   0.000000000000000   0.000000000000000   0.000000000000000
disp C   0.000000000000000   0.000000000000000   0.000000000000000
disp C   0.000000000000000   0.000000000000000   0.000000000000000
disp C   0.000000000000000   0.000000000000000   0.000000000000000
disp C   0.000000000000000   0.000000000000000   0.000000000000000
disp C   0.000000000000000   0.000000000000000   0.000000000000000
disp C   0.000000000000000   0.000000000000000   0.000000000000000
disp C   0.000000000000000   0.000000000000000   0.000000000000000
disp C  -0.000000532505003  -0.000003168587174   0.000006825903633
disp N   0.000000000000000   0.000000000000000   0.000000000000000
disp N   0.000000000000000   0.000000000000000   0.000000000000000
disp N   0.000000000000000   0.000000000000000   0.000000000000000
disp N   0.000000000000000   0.000000000000000   0.000000000000000
disp Ti   0.000000000000000   0.000000000000000   0.000000000000000
disp O   0.000000390756782  -0.000001101329982   0.000002652162784
disp O  -0.001131557716382  -0.000135326781032  -0.001066859912856
disp H   0.012359403465916   0.007146592332142   0.001742187308523
disp H   0.005657029389031  -0.005344369367260   0.015432024308831

Vibrational free energy components at T = 298 K:
	ZPE:          0.028360
	Evib:         0.031190
	TSvib:        0.005100
	Avib:         0.026089


Dumping 'jdft.n_up' ... done
Dumping 'jdft.n_dn' ... done
Dumping 'jdft.tau_up' ... done
Dumping 'jdft.tau_dn' ... done
Dumping 'jdft.eigenvals' ... done
Dumping 'jdft.eigStats' ... 
	eMin: -2.251752 at state 9 ( [ +0.000000 +0.000000 +0.000000 ] spin -1 )
	HOMO: -0.133945 at state 13 ( [ +0.333333 +0.333333 +0.000000 ] spin -1 )
	mu  : -0.127200
	LUMO: -0.126878 at state 0 ( [ +0.000000 +0.000000 +0.000000 ] spin 1 )
	eMax: +0.022479 at state 0 ( [ +0.000000 +0.000000 +0.000000 ] spin 1 )
	HOMO-LUMO gap: +0.007067
	Optical gap  : +0.016552 at state 10 ( [ +0.000000 +0.333333 +0.000000 ] spin -1 )
Dumping 'jdft.kPts' ... done
Dumping 'jdft.dosUp' ... done.
Dumping 'jdft.dosDn' ... done.
End date and time: Wed Nov  9 23:18:59 2022  (Duration: 0-10:10:10.97)
Done!

PROFILER:             augmentDensityGrid     0.630856 +/-     0.791054 s, 2670 calls,   1684.384228 s total
PROFILER:         augmentDensityGridGrad     0.459746 +/-     0.581912 s, 1465 calls,    673.528163 s total
PROFILER:        augmentDensitySpherical     0.000358 +/-     0.000502 s, 2670 calls,      0.954737 s total
PROFILER:    augmentDensitySphericalGrad     0.000361 +/-     0.000532 s, 1905 calls,      0.687847 s total
PROFILER:                 augmentOverlap     1.342268 +/-     2.026825 s, 5740 calls,   7704.615906 s total
PROFILER:        ColumnBundle::randomize     0.004783 +/-     0.000000 s,    1 calls,      0.004783 s total
PROFILER:                     diagouterI    15.270863 +/-     2.452180 s,  537 calls,   8200.453619 s total
PROFILER:              EdensityAndVscloc     5.403690 +/-     4.730579 s,  535 calls,   2890.974023 s total
PROFILER:                     EnlAndGrad     0.001128 +/-     0.001787 s, 2975 calls,      3.355898 s total
PROFILER:            ExCorrCommunication     0.066116 +/-     0.095277 s, 3388 calls,    223.999473 s total
PROFILER:               ExCorrFunctional     0.025325 +/-     0.004794 s,  584 calls,     14.789993 s total
PROFILER:                    ExCorrTotal     0.640611 +/-     0.187614 s,  584 calls,    374.116942 s total
PROFILER:                   Idag_DiagV_I    26.192514 +/-     9.900768 s,  365 calls,   9560.267514 s total
PROFILER:                    initWeights     1.970662 +/-     0.000000 s,    1 calls,      1.970662 s total
PROFILER:                    inv(matrix)     0.001903 +/-     0.000819 s,  488 calls,      0.928475 s total
PROFILER:            matrix::diagonalize     0.007382 +/-     0.004633 s,  881 calls,      6.503553 s total
PROFILER:                    matrix::set     0.000002 +/-     0.000004 s, 53354 calls,      0.106250 s total
PROFILER:            orthoMatrix(matrix)     0.001289 +/-     0.000763 s,  561 calls,      0.722912 s total
PROFILER:     RadialFunctionR::transform     0.002651 +/-     0.010032 s,  151 calls,      0.400276 s total
PROFILER:                    reduceKmesh     0.000001 +/-     0.000000 s,    1 calls,      0.000001 s total
PROFILER:   VanDerWaalsD3::energyAndGrad     0.033822 +/-     0.002418 s,   33 calls,      1.116125 s total
PROFILER:               WavefunctionDrag    26.328656 +/-     0.532195 s,   16 calls,    421.258504 s total
PROFILER:                            Y*M     0.610350 +/-     0.792582 s, 9897 calls,   6040.637802 s total
PROFILER:                          Y1^Y2     0.621069 +/-     0.815779 s, 7333 calls,   4554.301197 s total

MEMUSAGE:                   ColumnBundle     1.340214 GB
MEMUSAGE:        complexScalarFieldTilde     0.049438 GB
MEMUSAGE:                    IndexArrays     0.023178 GB
MEMUSAGE:                         matrix     0.020735 GB
MEMUSAGE:                           misc     0.051230 GB
MEMUSAGE:                    ScalarField     0.395508 GB
MEMUSAGE:               ScalarFieldTilde     0.262436 GB
MEMUSAGE:                          Total     1.657328 GB
